
     Program PHONON v.6.4.1 starts on  4Jan2022 at  5: 5: 1 

     This program is part of the open-source Quantum ESPRESSO suite
     for quantum simulation of materials; please cite
         "P. Giannozzi et al., J. Phys.:Condens. Matter 21 395502 (2009);
         "P. Giannozzi et al., J. Phys.:Condens. Matter 29 465901 (2017);
          URL http://www.quantum-espresso.org", 
     in publications or presentations arising from this work. More details at
     http://www.quantum-espresso.org/quote

     Parallel version (MPI & OpenMP), running on       8 processor cores
     Number of MPI processes:                 1
     Threads/MPI process:                     8

     MPI processes distributed on     1 nodes
      Title line not specified: using 'default'.

     Reading data from directory:
     ./tmp\silicon.save\

     IMPORTANT: XC functional enforced from input :
     Exchange-correlation      = PBE ( 1  4  3  4 0 0)
     Any further DFT definition will be discarded
     Please, verify this is what you really want

               file Si.pbe-nl-kjpaw_psl.1.0.0.UPF: wavefunction(s)  3S 3P renormalized

     G-vector sticks info
     --------------------
     sticks:   dense  smooth     PW     G-vecs:    dense   smooth      PW
     Sum         433     433    139                 5961     5961    1067


     Check: negative core charge=   -0.000002

     Calculation of q =    0.0000000   0.0000000   0.0000000

     default                                                                    

     bravais-lattice index     =            2
     lattice parameter (alat)  =      10.2273  a.u.
     unit-cell volume          =     267.4379 (a.u.)^3
     number of atoms/cell      =            2
     number of atomic types    =            1
     kinetic-energy cut-off    =      30.0000  Ry
     charge density cut-off    =     120.0000  Ry
     convergence threshold     =      1.0E-14
     beta                      =       0.7000
     number of iterations used =            4
     Exchange-correlation      = PBE ( 1  4  3  4 0 0)


     celldm(1)=   10.22730  celldm(2)=    0.00000  celldm(3)=    0.00000
     celldm(4)=    0.00000  celldm(5)=    0.00000  celldm(6)=    0.00000

     crystal axes: (cart. coord. in units of alat)
               a(1) = ( -0.5000  0.0000  0.5000 )  
               a(2) = (  0.0000  0.5000  0.5000 )  
               a(3) = ( -0.5000  0.5000  0.0000 )  

     reciprocal axes: (cart. coord. in units 2 pi/alat)
               b(1) = ( -1.0000 -1.0000  1.0000 )  
               b(2) = (  1.0000  1.0000  1.0000 )  
               b(3) = ( -1.0000  1.0000 -1.0000 )  


     Atoms inside the unit cell: 

     Cartesian axes

     site n.  atom      mass           positions (alat units)
        1     Si  28.0855   tau(    1) = (    0.00000    0.00000    0.00000  )
        2     Si  28.0855   tau(    2) = (   -0.25000    0.25000    0.25000  )

     Computing dynamical matrix for 
                    q = (   0.0000000   0.0000000   0.0000000 )

     49 Sym.Ops. (with q -> -q+G )


     G cutoff =  317.9388  (   5961 G-vectors)     FFT grid: ( 32, 32, 32)
     number of k points=     8
                       cart. coord. in units 2pi/alat
        k(    1) = (   0.0000000   0.0000000   0.0000000), wk =   0.0312500
        k(    2) = (  -0.2500000   0.2500000  -0.2500000), wk =   0.2500000
        k(    3) = (   0.5000000  -0.5000000   0.5000000), wk =   0.1250000
        k(    4) = (   0.0000000   0.5000000   0.0000000), wk =   0.1875000
        k(    5) = (   0.7500000  -0.2500000   0.7500000), wk =   0.7500000
        k(    6) = (   0.5000000   0.0000000   0.5000000), wk =   0.3750000
        k(    7) = (   0.0000000  -1.0000000   0.0000000), wk =   0.0937500
        k(    8) = (  -0.5000000  -1.0000000   0.0000000), wk =   0.1875000

     PseudoPot. # 1 for Si read from file:
     ../pseudo/\Si.pbe-nl-kjpaw_psl.1.0.0.UPF
     MD5 check sum: 7c4ce21ffeffd8c0069685f589ef73fc
     Pseudo is Projector augmented-wave + core cor, Zval =  4.0
     Generated using "atomic" code by A. Dal Corso v.6.3
     Shape of augmentation charge: PSQ
     Using radial grid of 1141 points,  4 beta functions with: 
                l(1) =   0
                l(2) =   0
                l(3) =   1
                l(4) =   1
     Q(r) pseudized with 0 coefficients 


     Mode symmetry, O_h (m-3m)  point group:


     Atomic displacements:
     There are   2 irreducible representations

     Representation     1      3 modes -T_2g G_25' G_5+  To be done

     Representation     2      3 modes -T_1u G_15  G_4-  To be done



     Alpha used in Ewald sum =   1.3000
     PHONON       :      6.03s CPU      3.23s WALL



     Representation #  1 modes #   1  2  3

     Self-consistent Calculation

      iter #   1 total cpu time :     6.1 secs   av.it.:   5.1
      thresh= 1.000E-02 alpha_mix =  0.700 |ddv_scf|^2 =  3.840E-08

      iter #   2 total cpu time :     9.4 secs   av.it.:  10.2
      thresh= 1.960E-05 alpha_mix =  0.700 |ddv_scf|^2 =  2.044E-09

      iter #   3 total cpu time :    12.5 secs   av.it.:  10.0
      thresh= 4.521E-06 alpha_mix =  0.700 |ddv_scf|^2 =  1.238E-10

      iter #   4 total cpu time :    15.5 secs   av.it.:   9.8
      thresh= 1.113E-06 alpha_mix =  0.700 |ddv_scf|^2 =  3.369E-13

      iter #   5 total cpu time :    18.6 secs   av.it.:  10.2
      thresh= 5.804E-08 alpha_mix =  0.700 |ddv_scf|^2 =  3.515E-15

     End of self-consistent calculation

     Convergence has been achieved 


     Representation #  2 modes #   4  5  6

     Self-consistent Calculation

      iter #   1 total cpu time :    21.4 secs   av.it.:   5.6
      thresh= 1.000E-02 alpha_mix =  0.700 |ddv_scf|^2 =  3.356E-08

      iter #   2 total cpu time :    24.4 secs   av.it.:  10.8
      thresh= 1.832E-05 alpha_mix =  0.700 |ddv_scf|^2 =  2.246E-09

      iter #   3 total cpu time :    27.4 secs   av.it.:  10.2
      thresh= 4.740E-06 alpha_mix =  0.700 |ddv_scf|^2 =  1.243E-10

      iter #   4 total cpu time :    30.4 secs   av.it.:  10.5
      thresh= 1.115E-06 alpha_mix =  0.700 |ddv_scf|^2 =  5.096E-13

      iter #   5 total cpu time :    33.5 secs   av.it.:  10.5
      thresh= 7.138E-08 alpha_mix =  0.700 |ddv_scf|^2 =  1.452E-15

     End of self-consistent calculation

     Convergence has been achieved 

     Number of q in the star =    1
     List of q in the star:
          1   0.000000000   0.000000000   0.000000000

     Diagonalizing the dynamical matrix

     q = (    0.000000000   0.000000000   0.000000000 ) 

 **************************************************************************
     freq (    1) =      -0.997873 [THz] =     -33.285475 [cm-1]
     freq (    2) =      -0.997873 [THz] =     -33.285475 [cm-1]
     freq (    3) =      -0.997873 [THz] =     -33.285475 [cm-1]
     freq (    4) =      15.785429 [THz] =     526.545242 [cm-1]
     freq (    5) =      15.785429 [THz] =     526.545242 [cm-1]
     freq (    6) =      15.785429 [THz] =     526.545242 [cm-1]
 **************************************************************************

     Mode symmetry, O_h (m-3m)  point group:

     freq (  1 -  3) =        -33.3  [cm-1]   --> T_1u G_15  G_4- I  
     freq (  4 -  6) =        526.5  [cm-1]   --> T_2g G_25' G_5+ R  

     PHONON       :   1m 4.78s CPU     33.56s WALL

     INITIALIZATION: 
     phq_setup    :      0.33s CPU      0.10s WALL (       1 calls)
     phq_init     :      2.72s CPU      0.94s WALL (       1 calls)

     phq_init     :      2.72s CPU      0.94s WALL (       1 calls)
     set_drhoc    :      1.81s CPU      0.56s WALL (       3 calls)
     init_vloc    :      0.00s CPU      0.00s WALL (       1 calls)
     init_us_1    :      1.05s CPU      0.30s WALL (       1 calls)
     newd         :      0.00s CPU      0.01s WALL (       1 calls)
     dvanqq       :      0.12s CPU      0.04s WALL (       1 calls)
     drho         :      0.34s CPU      0.10s WALL (       1 calls)

     DYNAMICAL MATRIX:
     dynmat0      :      1.19s CPU      0.39s WALL (       1 calls)
     phqscf       :     58.72s CPU     30.30s WALL (       1 calls)
     dynmatrix    :      0.03s CPU      0.01s WALL (       1 calls)

     phqscf       :     58.72s CPU     30.30s WALL (       1 calls)
     solve_linter :     58.59s CPU     30.27s WALL (       2 calls)
     drhodv       :      0.12s CPU      0.02s WALL (       2 calls)

     dynmat0      :      1.19s CPU      0.39s WALL (       1 calls)
     dynmat_us    :      0.06s CPU      0.01s WALL (       1 calls)
     d2ionq       :      0.00s CPU      0.00s WALL (       1 calls)
     dynmatcc     :      1.12s CPU      0.37s WALL (       1 calls)

     dynmat_us    :      0.06s CPU      0.01s WALL (       1 calls)
     addusdynmat  :      0.00s CPU      0.00s WALL (       1 calls)

     phqscf       :     58.72s CPU     30.30s WALL (       1 calls)
     solve_linter :     58.59s CPU     30.27s WALL (       2 calls)

     solve_linter :     58.59s CPU     30.27s WALL (       2 calls)
     dvqpsi_us    :      0.48s CPU      0.10s WALL (      48 calls)
     ortho        :      0.09s CPU      0.03s WALL (     240 calls)
     cgsolve      :     19.45s CPU      5.19s WALL (     240 calls)
     incdrhoscf   :      1.45s CPU      0.36s WALL (     240 calls)
     addusddens   :      0.34s CPU      0.12s WALL (      12 calls)
     vpsifft      :      0.52s CPU      0.24s WALL (     192 calls)
     dv_of_drho   :      0.72s CPU      0.20s WALL (      30 calls)
     mix_pot      :      0.11s CPU      0.07s WALL (      10 calls)
     psymdvscf    :      4.44s CPU      1.25s WALL (      10 calls)
     newdq        :      0.95s CPU      0.25s WALL (      10 calls)
     adddvscf     :      0.00s CPU      0.01s WALL (     192 calls)
     drhodvus     :      0.00s CPU      0.00s WALL (       2 calls)

     dvqpsi_us    :      0.48s CPU      0.10s WALL (      48 calls)
     dvqpsi_us_on :      0.05s CPU      0.01s WALL (      48 calls)

     cgsolve      :     19.45s CPU      5.19s WALL (     240 calls)
     ch_psi       :     18.94s CPU      5.12s WALL (    2614 calls)

     ch_psi       :     18.94s CPU      5.12s WALL (    2614 calls)
     h_psi        :     16.23s CPU      4.55s WALL (    2614 calls)
     last         :      1.55s CPU      0.34s WALL (    2614 calls)

     h_psi        :     16.23s CPU      4.55s WALL (    2614 calls)
     add_vuspsi   :      0.19s CPU      0.05s WALL (    2614 calls)

     incdrhoscf   :      1.45s CPU      0.36s WALL (     240 calls)
     addusdbec    :      0.00s CPU      0.01s WALL (     288 calls)

     drhodvus     :      0.00s CPU      0.00s WALL (       2 calls)

      General routines
     calbec       :      0.44s CPU      0.11s WALL (    6028 calls)
     fft          :      0.14s CPU      0.06s WALL (     542 calls)
     ffts         :      0.00s CPU      0.01s WALL (      66 calls)
     fftw         :      8.72s CPU      2.21s WALL (   22702 calls)
     davcio       :      0.16s CPU      0.08s WALL (     932 calls)
     write_rec    :      0.06s CPU      0.05s WALL (      12 calls)


     PHONON       :   1m 4.78s CPU     33.57s WALL


   This run was terminated on:   5: 5:35   4Jan2022            

=------------------------------------------------------------------------------=
   JOB DONE.
=------------------------------------------------------------------------------=
