
     Program PHONON v.6.4.1 starts on  4Jan2022 at  5: 6:51 

     This program is part of the open-source Quantum ESPRESSO suite
     for quantum simulation of materials; please cite
         "P. Giannozzi et al., J. Phys.:Condens. Matter 21 395502 (2009);
         "P. Giannozzi et al., J. Phys.:Condens. Matter 29 465901 (2017);
          URL http://www.quantum-espresso.org", 
     in publications or presentations arising from this work. More details at
     http://www.quantum-espresso.org/quote

     Parallel version (MPI & OpenMP), running on       8 processor cores
     Number of MPI processes:                 1
     Threads/MPI process:                     8

     MPI processes distributed on     1 nodes
      Title line not specified: using 'default'.

     Reading data from directory:
     ./tmp\silicon.save\

     IMPORTANT: XC functional enforced from input :
     Exchange-correlation      = PBE ( 1  4  3  4 0 0)
     Any further DFT definition will be discarded
     Please, verify this is what you really want

               file Si.pbe-nl-kjpaw_psl.1.0.0.UPF: wavefunction(s)  3S 3P renormalized

     G-vector sticks info
     --------------------
     sticks:   dense  smooth     PW     G-vecs:    dense   smooth      PW
     Sum         433     433    139                 5961     5961    1067


     Check: negative core charge=   -0.000002


     Dynamical matrices for ( 2, 2, 2)  uniform grid of q-points
     (   3 q-points):
       N         xq(1)         xq(2)         xq(3) 
       1   0.000000000   0.000000000   0.000000000
       2   0.500000000  -0.500000000   0.500000000
       3   0.000000000  -1.000000000   0.000000000

     Calculation of q =    0.0000000   0.0000000   0.0000000

     default                                                                    

     bravais-lattice index     =            2
     lattice parameter (alat)  =      10.2273  a.u.
     unit-cell volume          =     267.4379 (a.u.)^3
     number of atoms/cell      =            2
     number of atomic types    =            1
     kinetic-energy cut-off    =      30.0000  Ry
     charge density cut-off    =     120.0000  Ry
     convergence threshold     =      1.0E-14
     beta                      =       0.7000
     number of iterations used =            4
     Exchange-correlation      = PBE ( 1  4  3  4 0 0)


     celldm(1)=   10.22730  celldm(2)=    0.00000  celldm(3)=    0.00000
     celldm(4)=    0.00000  celldm(5)=    0.00000  celldm(6)=    0.00000

     crystal axes: (cart. coord. in units of alat)
               a(1) = ( -0.5000  0.0000  0.5000 )  
               a(2) = (  0.0000  0.5000  0.5000 )  
               a(3) = ( -0.5000  0.5000  0.0000 )  

     reciprocal axes: (cart. coord. in units 2 pi/alat)
               b(1) = ( -1.0000 -1.0000  1.0000 )  
               b(2) = (  1.0000  1.0000  1.0000 )  
               b(3) = ( -1.0000  1.0000 -1.0000 )  


     Atoms inside the unit cell: 

     Cartesian axes

     site n.  atom      mass           positions (alat units)
        1     Si  28.0855   tau(    1) = (    0.00000    0.00000    0.00000  )
        2     Si  28.0855   tau(    2) = (   -0.25000    0.25000    0.25000  )

     Computing dynamical matrix for 
                    q = (   0.0000000   0.0000000   0.0000000 )

     49 Sym.Ops. (with q -> -q+G )


     G cutoff =  317.9388  (   5961 G-vectors)     FFT grid: ( 32, 32, 32)
     number of k points=     8

     PseudoPot. # 1 for Si read from file:
     ../pseudo/\Si.pbe-nl-kjpaw_psl.1.0.0.UPF
     MD5 check sum: 7c4ce21ffeffd8c0069685f589ef73fc
     Pseudo is Projector augmented-wave + core cor, Zval =  4.0
     Generated using "atomic" code by A. Dal Corso v.6.3
     Shape of augmentation charge: PSQ
     Using radial grid of 1141 points,  4 beta functions with: 
                l(1) =   0
                l(2) =   0
                l(3) =   1
                l(4) =   1
     Q(r) pseudized with 0 coefficients 


     Mode symmetry, O_h (m-3m)  point group:


     Electric field:
     Dielectric constant
     Born effective charges in two ways 


     Atomic displacements:
     There are   2 irreducible representations

     Representation     1      3 modes -T_2g G_25' G_5+  To be done

     Representation     2      3 modes -T_1u G_15  G_4-  To be done



     Alpha used in Ewald sum =   1.3000
     PHONON       :      6.05s CPU      2.81s WALL


     Electric Fields Calculation

      iter #   1 total cpu time :     6.7 secs   av.it.:   6.6
      thresh= 1.000E-02 alpha_mix =  0.700 |ddv_scf|^2 =  2.442E-07

      iter #   2 total cpu time :     9.7 secs   av.it.:  10.8
      thresh= 4.942E-05 alpha_mix =  0.700 |ddv_scf|^2 =  1.872E-08

      iter #   3 total cpu time :    12.7 secs   av.it.:  10.4
      thresh= 1.368E-05 alpha_mix =  0.700 |ddv_scf|^2 =  1.500E-09

      iter #   4 total cpu time :    15.7 secs   av.it.:  10.2
      thresh= 3.873E-06 alpha_mix =  0.700 |ddv_scf|^2 =  1.077E-11

      iter #   5 total cpu time :    18.8 secs   av.it.:  10.4
      thresh= 3.282E-07 alpha_mix =  0.700 |ddv_scf|^2 =  1.617E-14

      iter #   6 total cpu time :    21.7 secs   av.it.:  10.1
      thresh= 1.272E-08 alpha_mix =  0.700 |ddv_scf|^2 =  6.164E-16

     End of electric fields calculation

          Dielectric constant in cartesian axis 

          (      23.189034192      -0.000000000       0.000000000 )
          (      -0.000000000      23.189034192       0.000000000 )
          (       0.000000000      -0.000000000      23.189034192 )

          Effective charges (d Force / dE) in cartesian axis

           atom      1   Si 
      Ex  (       -1.18258        0.00000       -0.00000 )
      Ey  (        0.00000       -1.18258        0.00000 )
      Ez  (        0.00000        0.00000       -1.18258 )
           atom      2   Si 
      Ex  (       -1.18258       -0.00000       -0.00000 )
      Ey  (        0.00000       -1.18258        0.00000 )
      Ez  (       -0.00000       -0.00000       -1.18258 )


     Representation #  1 modes #   1  2  3

     Self-consistent Calculation

      iter #   1 total cpu time :    25.2 secs   av.it.:   5.3
      thresh= 1.000E-02 alpha_mix =  0.700 |ddv_scf|^2 =  3.849E-08

      iter #   2 total cpu time :    28.2 secs   av.it.:  10.4
      thresh= 1.962E-05 alpha_mix =  0.700 |ddv_scf|^2 =  2.050E-09

      iter #   3 total cpu time :    31.2 secs   av.it.:  10.1
      thresh= 4.528E-06 alpha_mix =  0.700 |ddv_scf|^2 =  1.246E-10

      iter #   4 total cpu time :    34.3 secs   av.it.:  10.0
      thresh= 1.116E-06 alpha_mix =  0.700 |ddv_scf|^2 =  3.368E-13

      iter #   5 total cpu time :    37.4 secs   av.it.:  10.4
      thresh= 5.803E-08 alpha_mix =  0.700 |ddv_scf|^2 =  3.483E-15

     End of self-consistent calculation

     Convergence has been achieved 


     Representation #  2 modes #   4  5  6

     Self-consistent Calculation

      iter #   1 total cpu time :    40.4 secs   av.it.:   5.8
      thresh= 1.000E-02 alpha_mix =  0.700 |ddv_scf|^2 =  3.357E-08

      iter #   2 total cpu time :    43.4 secs   av.it.:  10.9
      thresh= 1.832E-05 alpha_mix =  0.700 |ddv_scf|^2 =  2.247E-09

      iter #   3 total cpu time :    46.8 secs   av.it.:  10.3
      thresh= 4.740E-06 alpha_mix =  0.700 |ddv_scf|^2 =  1.245E-10

      iter #   4 total cpu time :    50.0 secs   av.it.:  10.5
      thresh= 1.116E-06 alpha_mix =  0.700 |ddv_scf|^2 =  5.105E-13

      iter #   5 total cpu time :    53.2 secs   av.it.:  10.4
      thresh= 7.145E-08 alpha_mix =  0.700 |ddv_scf|^2 =  1.469E-15

     End of self-consistent calculation

     Convergence has been achieved 

     Number of q in the star =    1
     List of q in the star:
          1   0.000000000   0.000000000   0.000000000

          Dielectric constant in cartesian axis 

          (      23.189034192      -0.000000000       0.000000000 )
          (      -0.000000000      23.189034192       0.000000000 )
          (       0.000000000      -0.000000000      23.189034192 )

          Effective charges (d Force / dE) in cartesian axis

           atom      1   Si 
      Ex  (       -1.18258        0.00000       -0.00000 )
      Ey  (        0.00000       -1.18258        0.00000 )
      Ez  (        0.00000        0.00000       -1.18258 )
           atom      2   Si 
      Ex  (       -1.18258       -0.00000       -0.00000 )
      Ey  (        0.00000       -1.18258        0.00000 )
      Ez  (       -0.00000       -0.00000       -1.18258 )

          Effective charges (d P / du) in cartesian axis 

           atom      1   Si 
      Px  (       -1.18161        0.00000       -0.00000 )
      Py  (        0.00000       -1.18161        0.00000 )
      Pz  (       -0.00000        0.00000       -1.18161 )
           atom      2   Si 
      Px  (       -1.18161        0.00000       -0.00000 )
      Py  (       -0.00000       -1.18161       -0.00000 )
      Pz  (       -0.00000        0.00000       -1.18161 )

     Diagonalizing the dynamical matrix

     q = (    0.000000000   0.000000000   0.000000000 ) 

 **************************************************************************
     freq (    1) =      -1.388124 [THz] =     -46.302833 [cm-1]
     freq (    2) =      -1.388124 [THz] =     -46.302833 [cm-1]
     freq (    3) =      -1.388124 [THz] =     -46.302833 [cm-1]
     freq (    4) =      15.747472 [THz] =     525.279119 [cm-1]
     freq (    5) =      15.747472 [THz] =     525.279119 [cm-1]
     freq (    6) =      15.747472 [THz] =     525.279119 [cm-1]
 **************************************************************************

     Mode symmetry, O_h (m-3m)  point group:

     freq (  1 -  3) =        -46.3  [cm-1]   --> T_1u G_15  G_4- I  
     freq (  4 -  6) =        525.3  [cm-1]   --> T_2g G_25' G_5+ R  

     Calculation of q =    0.5000000  -0.5000000   0.5000000

     Subspace diagonalization in iterative solution of the eigenvalue problem:
     a serial algorithm will be used


     G-vector sticks info
     --------------------
     sticks:   dense  smooth     PW     G-vecs:    dense   smooth      PW
     Sum         433     433    163                 5961     5961    1363


     Title: 
     default                                                                    


     bravais-lattice index     =            2
     lattice parameter (alat)  =      10.2273  a.u.
     unit-cell volume          =     267.4379 (a.u.)^3
     number of atoms/cell      =            2
     number of atomic types    =            1
     number of electrons       =         8.00
     number of Kohn-Sham states=            4
     kinetic-energy cutoff     =      30.0000  Ry
     charge density cutoff     =     120.0000  Ry
     Exchange-correlation      = PBE ( 1  4  3  4 0 0)

     celldm(1)=  10.227300  celldm(2)=   0.000000  celldm(3)=   0.000000
     celldm(4)=   0.000000  celldm(5)=   0.000000  celldm(6)=   0.000000

     crystal axes: (cart. coord. in units of alat)
               a(1) = (  -0.500000   0.000000   0.500000 )  
               a(2) = (   0.000000   0.500000   0.500000 )  
               a(3) = (  -0.500000   0.500000   0.000000 )  

     reciprocal axes: (cart. coord. in units 2 pi/alat)
               b(1) = ( -1.000000 -1.000000  1.000000 )  
               b(2) = (  1.000000  1.000000  1.000000 )  
               b(3) = ( -1.000000  1.000000 -1.000000 )  


     PseudoPot. # 1 for Si read from file:
     ../pseudo/\Si.pbe-nl-kjpaw_psl.1.0.0.UPF
     MD5 check sum: 7c4ce21ffeffd8c0069685f589ef73fc
     Pseudo is Projector augmented-wave + core cor, Zval =  4.0
     Generated using "atomic" code by A. Dal Corso v.6.3
     Shape of augmentation charge: PSQ
     Using radial grid of 1141 points,  4 beta functions with: 
                l(1) =   0
                l(2) =   0
                l(3) =   1
                l(4) =   1
     Q(r) pseudized with 0 coefficients 


     atomic species   valence    mass     pseudopotential
        Si             4.00    28.08550     Si( 1.00)

     48 Sym. Ops., with inversion, found



   Cartesian axes

     site n.     atom                  positions (alat units)
         1           Si  tau(   1) = (   0.0000000   0.0000000   0.0000000  )
         2           Si  tau(   2) = (  -0.2500000   0.2500000   0.2500000  )

     number of k points=    26
                       cart. coord. in units 2pi/alat
        k(    1) = (   0.0000000   0.0000000   0.0000000), wk =   0.0312500
        k(    2) = (   0.5000000  -0.5000000   0.5000000), wk =   0.0000000
        k(    3) = (  -0.2500000   0.2500000  -0.2500000), wk =   0.0625000
        k(    4) = (   0.2500000  -0.2500000   0.2500000), wk =   0.0000000
        k(    5) = (   0.5000000  -0.5000000   0.5000000), wk =   0.0312500
        k(    6) = (   1.0000000  -1.0000000   1.0000000), wk =   0.0000000
        k(    7) = (   0.0000000   0.5000000   0.0000000), wk =   0.1875000
        k(    8) = (   0.5000000   0.0000000   0.5000000), wk =   0.0000000
        k(    9) = (   0.7500000  -0.2500000   0.7500000), wk =   0.1875000
        k(   10) = (   1.2500000  -0.7500000   1.2500000), wk =   0.0000000
        k(   11) = (   0.5000000   0.0000000   0.5000000), wk =   0.1875000
        k(   12) = (   1.0000000  -0.5000000   1.0000000), wk =   0.0000000
        k(   13) = (   0.0000000  -1.0000000   0.0000000), wk =   0.0937500
        k(   14) = (   0.5000000  -1.5000000   0.5000000), wk =   0.0000000
        k(   15) = (  -0.5000000  -1.0000000   0.0000000), wk =   0.1875000
        k(   16) = (   0.0000000  -1.5000000   0.5000000), wk =   0.0000000
        k(   17) = (  -0.2500000  -0.2500000   0.2500000), wk =   0.1875000
        k(   18) = (   0.2500000  -0.7500000   0.7500000), wk =   0.0000000
        k(   19) = (   0.5000000   0.5000000  -0.5000000), wk =   0.0937500
        k(   20) = (   1.0000000   0.0000000   0.0000000), wk =   0.0000000
        k(   21) = (   0.7500000   0.2500000  -0.7500000), wk =   0.3750000
        k(   22) = (   1.2500000  -0.2500000  -0.2500000), wk =   0.0000000
        k(   23) = (  -0.7500000  -0.2500000  -0.7500000), wk =   0.1875000
        k(   24) = (  -0.2500000  -0.7500000  -0.2500000), wk =   0.0000000
        k(   25) = (   0.5000000   0.0000000  -0.5000000), wk =   0.1875000
        k(   26) = (   1.0000000  -0.5000000   0.0000000), wk =   0.0000000

     Dense  grid:     5961 G-vectors     FFT dimensions: (  32,  32,  32)

     Estimated max dynamical RAM per process >       7.68 MB

     Check: negative core charge=   -0.000002

     The potential is recalculated from file :
     ./tmp\_ph0\silicon.save\charge-density

     Starting wfcs are    8 atomic wfcs
     Checking if some PAW data can be deallocated... 

     Band Structure Calculation
     Davidson diagonalization with overlap

     ethr =  1.25E-10,  avg # of iterations = 12.6

     total cpu time spent up to now is        1.3 secs

     End of band structure calculation

          k = 0.0000 0.0000 0.0000 (   725 PWs)   bands (ev):

    -5.6882   6.3608   6.3608   6.3608

          k = 0.5000-0.5000 0.5000 (   754 PWs)   bands (ev):

    -3.3275  -0.6756   5.1442   5.1442

          k =-0.2500 0.2500-0.2500 (   751 PWs)   bands (ev):

    -4.8806   2.4020   5.5877   5.5877

          k = 0.2500-0.2500 0.2500 (   751 PWs)   bands (ev):

    -4.8806   2.4020   5.5877   5.5877

          k = 0.5000-0.5000 0.5000 (   754 PWs)   bands (ev):

    -3.3275  -0.6756   5.1442   5.1442

          k = 1.0000-1.0000 1.0000 (   725 PWs)   bands (ev):

    -5.6882   6.3608   6.3608   6.3608

          k = 0.0000 0.5000 0.0000 (   729 PWs)   bands (ev):

    -4.5959   2.8388   4.4389   4.4389

          k = 0.5000 0.0000 0.5000 (   742 PWs)   bands (ev):

    -3.6230   0.8498   2.5504   5.0118

          k = 0.7500-0.2500 0.7500 (   739 PWs)   bands (ev):

    -2.9407  -0.0633   2.7763   4.1209

          k = 1.2500-0.7500 1.2500 (   751 PWs)   bands (ev):

    -4.8806   2.4020   5.5877   5.5877

          k = 0.5000 0.0000 0.5000 (   742 PWs)   bands (ev):

    -3.6230   0.8498   2.5504   5.0118

          k = 1.0000-0.5000 1.0000 (   729 PWs)   bands (ev):

    -4.5959   2.8388   4.4389   4.4389

          k = 0.0000-1.0000 0.0000 (   740 PWs)   bands (ev):

    -1.5027  -1.5027   3.4652   3.4652

          k = 0.5000-1.5000 0.5000 (   754 PWs)   bands (ev):

    -3.3275  -0.6756   5.1442   5.1442

          k =-0.5000-1.0000 0.0000 (   744 PWs)   bands (ev):

    -1.3331  -1.3331   2.4453   2.4453

          k = 0.0000-1.5000 0.5000 (   742 PWs)   bands (ev):

    -3.6230   0.8498   2.5504   5.0118

          k =-0.2500-0.2500 0.2500 (   751 PWs)   bands (ev):

    -4.8806   2.4020   5.5877   5.5877

          k = 0.2500-0.7500 0.7500 (   739 PWs)   bands (ev):

    -2.9407  -0.0633   2.7763   4.1209

          k = 0.5000 0.5000-0.5000 (   754 PWs)   bands (ev):

    -3.3275  -0.6756   5.1442   5.1442

          k = 1.0000 0.0000 0.0000 (   740 PWs)   bands (ev):

    -1.5027  -1.5027   3.4652   3.4652

          k = 0.7500 0.2500-0.7500 (   739 PWs)   bands (ev):

    -2.9407  -0.0633   2.7763   4.1209

          k = 1.2500-0.2500-0.2500 (   739 PWs)   bands (ev):

    -2.9407  -0.0633   2.7763   4.1209

          k =-0.7500-0.2500-0.7500 (   739 PWs)   bands (ev):

    -2.9407  -0.0633   2.7763   4.1209

          k =-0.2500-0.7500-0.2500 (   739 PWs)   bands (ev):

    -2.9407  -0.0633   2.7763   4.1209

          k = 0.5000 0.0000-0.5000 (   742 PWs)   bands (ev):

    -3.6230   0.8498   2.5504   5.0118

          k = 1.0000-0.5000 0.0000 (   744 PWs)   bands (ev):

    -1.3331  -1.3331   2.4453   2.4453

     highest occupied level (ev):     6.3608

     Writing output data file silicon.save\

     default                                                                    

     bravais-lattice index     =            2
     lattice parameter (alat)  =      10.2273  a.u.
     unit-cell volume          =     267.4379 (a.u.)^3
     number of atoms/cell      =            2
     number of atomic types    =            1
     kinetic-energy cut-off    =      30.0000  Ry
     charge density cut-off    =     120.0000  Ry
     convergence threshold     =      1.0E-14
     beta                      =       0.7000
     number of iterations used =            4
     Exchange-correlation      = PBE ( 1  4  3  4 0 0)


     celldm(1)=   10.22730  celldm(2)=    0.00000  celldm(3)=    0.00000
     celldm(4)=    0.00000  celldm(5)=    0.00000  celldm(6)=    0.00000

     crystal axes: (cart. coord. in units of alat)
               a(1) = ( -0.5000  0.0000  0.5000 )  
               a(2) = (  0.0000  0.5000  0.5000 )  
               a(3) = ( -0.5000  0.5000  0.0000 )  

     reciprocal axes: (cart. coord. in units 2 pi/alat)
               b(1) = ( -1.0000 -1.0000  1.0000 )  
               b(2) = (  1.0000  1.0000  1.0000 )  
               b(3) = ( -1.0000  1.0000 -1.0000 )  


     Atoms inside the unit cell: 

     Cartesian axes

     site n.  atom      mass           positions (alat units)
        1     Si  28.0855   tau(    1) = (    0.00000    0.00000    0.00000  )
        2     Si  28.0855   tau(    2) = (   -0.25000    0.25000    0.25000  )

     Computing dynamical matrix for 
                    q = (   0.5000000  -0.5000000   0.5000000 )

     13 Sym.Ops. (with q -> -q+G )


     G cutoff =  317.9388  (   5961 G-vectors)     FFT grid: ( 32, 32, 32)
     number of k points=    26

     PseudoPot. # 1 for Si read from file:
     ../pseudo/\Si.pbe-nl-kjpaw_psl.1.0.0.UPF
     MD5 check sum: 7c4ce21ffeffd8c0069685f589ef73fc
     Pseudo is Projector augmented-wave + core cor, Zval =  4.0
     Generated using "atomic" code by A. Dal Corso v.6.3
     Shape of augmentation charge: PSQ
     Using radial grid of 1141 points,  4 beta functions with: 
                l(1) =   0
                l(2) =   0
                l(3) =   1
                l(4) =   1
     Q(r) pseudized with 0 coefficients 



     Atomic displacements:
     There are   4 irreducible representations

     Representation     1      1 modes -  To be done

     Representation     2      1 modes -  To be done

     Representation     3      2 modes -  To be done

     Representation     4      2 modes -  To be done



     Alpha used in Ewald sum =   1.3000
     PHONON       :   1m57.83s CPU     55.87s WALL



     Representation #  1 mode #   1

     Self-consistent Calculation

      iter #   1 total cpu time :    56.9 secs   av.it.:   5.0
      thresh= 1.000E-02 alpha_mix =  0.700 |ddv_scf|^2 =  5.922E-06

      iter #   2 total cpu time :    58.0 secs   av.it.:   8.8
      thresh= 2.434E-04 alpha_mix =  0.700 |ddv_scf|^2 =  4.987E-06

      iter #   3 total cpu time :    59.2 secs   av.it.:   8.5
      thresh= 2.233E-04 alpha_mix =  0.700 |ddv_scf|^2 =  5.201E-09

      iter #   4 total cpu time :    60.3 secs   av.it.:   8.7
      thresh= 7.212E-06 alpha_mix =  0.700 |ddv_scf|^2 =  5.028E-11

      iter #   5 total cpu time :    61.4 secs   av.it.:   8.5
      thresh= 7.091E-07 alpha_mix =  0.700 |ddv_scf|^2 =  4.776E-13

      iter #   6 total cpu time :    62.5 secs   av.it.:   8.8
      thresh= 6.911E-08 alpha_mix =  0.700 |ddv_scf|^2 =  1.118E-14

      iter #   7 total cpu time :    63.6 secs   av.it.:   8.5
      thresh= 1.058E-08 alpha_mix =  0.700 |ddv_scf|^2 =  7.317E-17

     End of self-consistent calculation

     Convergence has been achieved 


     Representation #  2 mode #   2

     Self-consistent Calculation

      iter #   1 total cpu time :    64.7 secs   av.it.:   6.2
      thresh= 1.000E-02 alpha_mix =  0.700 |ddv_scf|^2 =  9.026E-05

      iter #   2 total cpu time :    65.8 secs   av.it.:   9.2
      thresh= 9.500E-04 alpha_mix =  0.700 |ddv_scf|^2 =  2.985E-04

      iter #   3 total cpu time :    67.2 secs   av.it.:   8.4
      thresh= 1.728E-03 alpha_mix =  0.700 |ddv_scf|^2 =  3.241E-08

      iter #   4 total cpu time :    68.5 secs   av.it.:   9.2
      thresh= 1.800E-05 alpha_mix =  0.700 |ddv_scf|^2 =  1.032E-09

      iter #   5 total cpu time :    69.8 secs   av.it.:   9.6
      thresh= 3.213E-06 alpha_mix =  0.700 |ddv_scf|^2 =  3.832E-11

      iter #   6 total cpu time :    71.1 secs   av.it.:   9.4
      thresh= 6.190E-07 alpha_mix =  0.700 |ddv_scf|^2 =  6.924E-13

      iter #   7 total cpu time :    72.3 secs   av.it.:   8.8
      thresh= 8.321E-08 alpha_mix =  0.700 |ddv_scf|^2 =  4.275E-15

     End of self-consistent calculation

     Convergence has been achieved 


     Representation #  3 modes #   3  4

     Self-consistent Calculation

      iter #   1 total cpu time :    74.4 secs   av.it.:   5.4
      thresh= 1.000E-02 alpha_mix =  0.700 |ddv_scf|^2 =  2.096E-07

      iter #   2 total cpu time :    76.9 secs   av.it.:  10.1
      thresh= 4.579E-05 alpha_mix =  0.700 |ddv_scf|^2 =  1.861E-08

      iter #   3 total cpu time :    79.2 secs   av.it.:   9.9
      thresh= 1.364E-05 alpha_mix =  0.700 |ddv_scf|^2 =  7.705E-10

      iter #   4 total cpu time :    81.5 secs   av.it.:   9.5
      thresh= 2.776E-06 alpha_mix =  0.700 |ddv_scf|^2 =  9.154E-13

      iter #   5 total cpu time :    83.7 secs   av.it.:   9.7
      thresh= 9.568E-08 alpha_mix =  0.700 |ddv_scf|^2 =  5.844E-15

     End of self-consistent calculation

     Convergence has been achieved 


     Representation #  4 modes #   5  6

     Self-consistent Calculation

      iter #   1 total cpu time :    85.9 secs   av.it.:   5.4
      thresh= 1.000E-02 alpha_mix =  0.700 |ddv_scf|^2 =  5.814E-08

      iter #   2 total cpu time :    88.4 secs   av.it.:  10.1
      thresh= 2.411E-05 alpha_mix =  0.700 |ddv_scf|^2 =  3.888E-09

      iter #   3 total cpu time :    90.7 secs   av.it.:   9.8
      thresh= 6.235E-06 alpha_mix =  0.700 |ddv_scf|^2 =  6.243E-11

      iter #   4 total cpu time :    93.1 secs   av.it.:  10.3
      thresh= 7.901E-07 alpha_mix =  0.700 |ddv_scf|^2 =  9.398E-13

      iter #   5 total cpu time :    95.4 secs   av.it.:  10.2
      thresh= 9.694E-08 alpha_mix =  0.700 |ddv_scf|^2 =  1.372E-14

      iter #   6 total cpu time :    97.9 secs   av.it.:  10.4
      thresh= 1.171E-08 alpha_mix =  0.700 |ddv_scf|^2 =  7.617E-17

     End of self-consistent calculation

     Convergence has been achieved 

     Number of q in the star =    4
     List of q in the star:
          1   0.500000000  -0.500000000   0.500000000
          2   0.500000000   0.500000000  -0.500000000
          3  -0.500000000  -0.500000000  -0.500000000
          4   0.500000000  -0.500000000  -0.500000000

     Diagonalizing the dynamical matrix

     q = (    0.500000000  -0.500000000   0.500000000 ) 

 **************************************************************************
     freq (    1) =       3.036274 [THz] =     101.279193 [cm-1]
     freq (    2) =       3.036274 [THz] =     101.279193 [cm-1]
     freq (    3) =      11.513879 [THz] =     384.061664 [cm-1]
     freq (    4) =      12.450386 [THz] =     415.300189 [cm-1]
     freq (    5) =      14.897618 [THz] =     496.931047 [cm-1]
     freq (    6) =      14.897618 [THz] =     496.931047 [cm-1]
 **************************************************************************

     Calculation of q =    0.0000000  -1.0000000   0.0000000

     G-vector sticks info
     --------------------
     sticks:   dense  smooth     PW     G-vecs:    dense   smooth      PW
     Sum         433     433    163                 5961     5961    1411


     Title: 
     default                                                                    


     bravais-lattice index     =            2
     lattice parameter (alat)  =      10.2273  a.u.
     unit-cell volume          =     267.4379 (a.u.)^3
     number of atoms/cell      =            2
     number of atomic types    =            1
     number of electrons       =         8.00
     number of Kohn-Sham states=            4
     kinetic-energy cutoff     =      30.0000  Ry
     charge density cutoff     =     120.0000  Ry
     Exchange-correlation      = PBE ( 1  4  3  4 0 0)

     celldm(1)=  10.227300  celldm(2)=   0.000000  celldm(3)=   0.000000
     celldm(4)=   0.000000  celldm(5)=   0.000000  celldm(6)=   0.000000

     crystal axes: (cart. coord. in units of alat)
               a(1) = (  -0.500000   0.000000   0.500000 )  
               a(2) = (   0.000000   0.500000   0.500000 )  
               a(3) = (  -0.500000   0.500000   0.000000 )  

     reciprocal axes: (cart. coord. in units 2 pi/alat)
               b(1) = ( -1.000000 -1.000000  1.000000 )  
               b(2) = (  1.000000  1.000000  1.000000 )  
               b(3) = ( -1.000000  1.000000 -1.000000 )  


     PseudoPot. # 1 for Si read from file:
     ../pseudo/\Si.pbe-nl-kjpaw_psl.1.0.0.UPF
     MD5 check sum: 7c4ce21ffeffd8c0069685f589ef73fc
     Pseudo is Projector augmented-wave + core cor, Zval =  4.0
     Generated using "atomic" code by A. Dal Corso v.6.3
     Shape of augmentation charge: PSQ
     Using radial grid of 1141 points,  4 beta functions with: 
                l(1) =   0
                l(2) =   0
                l(3) =   1
                l(4) =   1
     Q(r) pseudized with 0 coefficients 


     atomic species   valence    mass     pseudopotential
        Si             4.00    28.08550     Si( 1.00)

     48 Sym. Ops., with inversion, found



   Cartesian axes

     site n.     atom                  positions (alat units)
         1           Si  tau(   1) = (   0.0000000   0.0000000   0.0000000  )
         2           Si  tau(   2) = (  -0.2500000   0.2500000   0.2500000  )

     number of k points=    26
                       cart. coord. in units 2pi/alat
        k(    1) = (   0.0000000   0.0000000   0.0000000), wk =   0.0312500
        k(    2) = (   0.0000000  -1.0000000   0.0000000), wk =   0.0000000
        k(    3) = (  -0.2500000   0.2500000  -0.2500000), wk =   0.2500000
        k(    4) = (  -0.2500000  -0.7500000  -0.2500000), wk =   0.0000000
        k(    5) = (   0.5000000  -0.5000000   0.5000000), wk =   0.1250000
        k(    6) = (   0.5000000  -1.5000000   0.5000000), wk =   0.0000000
        k(    7) = (   0.0000000   0.5000000   0.0000000), wk =   0.0625000
        k(    8) = (   0.0000000  -0.5000000   0.0000000), wk =   0.0000000
        k(    9) = (   0.7500000  -0.2500000   0.7500000), wk =   0.2500000
        k(   10) = (   0.7500000  -1.2500000   0.7500000), wk =   0.0000000
        k(   11) = (   0.5000000   0.0000000   0.5000000), wk =   0.1250000
        k(   12) = (   0.5000000  -1.0000000   0.5000000), wk =   0.0000000
        k(   13) = (   0.0000000  -1.0000000   0.0000000), wk =   0.0312500
        k(   14) = (   0.0000000  -2.0000000   0.0000000), wk =   0.0000000
        k(   15) = (  -0.5000000  -1.0000000   0.0000000), wk =   0.1250000
        k(   16) = (  -0.5000000  -2.0000000   0.0000000), wk =   0.0000000
        k(   17) = (   0.5000000   0.0000000   0.0000000), wk =   0.1250000
        k(   18) = (   0.5000000  -1.0000000   0.0000000), wk =   0.0000000
        k(   19) = (  -0.2500000   0.7500000   0.7500000), wk =   0.5000000
        k(   20) = (  -0.2500000  -0.2500000   0.7500000), wk =   0.0000000
        k(   21) = (   0.0000000   0.5000000   0.5000000), wk =   0.2500000
        k(   22) = (   0.0000000  -0.5000000   0.5000000), wk =   0.0000000
        k(   23) = (  -1.0000000   0.0000000   0.0000000), wk =   0.0625000
        k(   24) = (  -1.0000000  -1.0000000   0.0000000), wk =   0.0000000
        k(   25) = (   0.0000000  -0.5000000  -1.0000000), wk =   0.0625000
        k(   26) = (   0.0000000  -1.5000000  -1.0000000), wk =   0.0000000

     Dense  grid:     5961 G-vectors     FFT dimensions: (  32,  32,  32)

     Estimated max dynamical RAM per process >       7.68 MB

     Check: negative core charge=   -0.000002

     The potential is recalculated from file :
     ./tmp\_ph0\silicon.save\charge-density

     Starting wfcs are    8 atomic wfcs
     Checking if some PAW data can be deallocated... 

     Band Structure Calculation
     Davidson diagonalization with overlap

     ethr =  1.25E-10,  avg # of iterations = 12.5

     total cpu time spent up to now is        2.7 secs

     End of band structure calculation

          k = 0.0000 0.0000 0.0000 (   725 PWs)   bands (ev):

    -5.6882   6.3608   6.3608   6.3608

          k = 0.0000-1.0000 0.0000 (   740 PWs)   bands (ev):

    -1.5027  -1.5027   3.4652   3.4652

          k =-0.2500 0.2500-0.2500 (   751 PWs)   bands (ev):

    -4.8806   2.4020   5.5877   5.5877

          k =-0.2500-0.7500-0.2500 (   739 PWs)   bands (ev):

    -2.9407  -0.0633   2.7763   4.1209

          k = 0.5000-0.5000 0.5000 (   754 PWs)   bands (ev):

    -3.3275  -0.6756   5.1442   5.1442

          k = 0.5000-1.5000 0.5000 (   754 PWs)   bands (ev):

    -3.3275  -0.6756   5.1442   5.1442

          k = 0.0000 0.5000 0.0000 (   729 PWs)   bands (ev):

    -4.5959   2.8388   4.4389   4.4389

          k = 0.0000-0.5000 0.0000 (   729 PWs)   bands (ev):

    -4.5959   2.8388   4.4389   4.4389

          k = 0.7500-0.2500 0.7500 (   739 PWs)   bands (ev):

    -2.9407  -0.0633   2.7763   4.1209

          k = 0.7500-1.2500 0.7500 (   751 PWs)   bands (ev):

    -4.8806   2.4020   5.5877   5.5877

          k = 0.5000 0.0000 0.5000 (   742 PWs)   bands (ev):

    -3.6230   0.8498   2.5504   5.0118

          k = 0.5000-1.0000 0.5000 (   742 PWs)   bands (ev):

    -3.6230   0.8498   2.5504   5.0118

          k = 0.0000-1.0000 0.0000 (   740 PWs)   bands (ev):

    -1.5027  -1.5027   3.4652   3.4652

          k = 0.0000-2.0000 0.0000 (   725 PWs)   bands (ev):

    -5.6882   6.3608   6.3608   6.3608

          k =-0.5000-1.0000 0.0000 (   744 PWs)   bands (ev):

    -1.3331  -1.3331   2.4453   2.4453

          k =-0.5000-2.0000 0.0000 (   729 PWs)   bands (ev):

    -4.5959   2.8388   4.4389   4.4389

          k = 0.5000 0.0000 0.0000 (   729 PWs)   bands (ev):

    -4.5959   2.8388   4.4389   4.4389

          k = 0.5000-1.0000 0.0000 (   744 PWs)   bands (ev):

    -1.3331  -1.3331   2.4453   2.4453

          k =-0.2500 0.7500 0.7500 (   739 PWs)   bands (ev):

    -2.9407  -0.0633   2.7763   4.1209

          k =-0.2500-0.2500 0.7500 (   739 PWs)   bands (ev):

    -2.9407  -0.0633   2.7763   4.1209

          k = 0.0000 0.5000 0.5000 (   742 PWs)   bands (ev):

    -3.6230   0.8498   2.5504   5.0118

          k = 0.0000-0.5000 0.5000 (   742 PWs)   bands (ev):

    -3.6230   0.8498   2.5504   5.0118

          k =-1.0000 0.0000 0.0000 (   740 PWs)   bands (ev):

    -1.5027  -1.5027   3.4652   3.4652

          k =-1.0000-1.0000 0.0000 (   740 PWs)   bands (ev):

    -1.5027  -1.5027   3.4652   3.4652

          k = 0.0000-0.5000-1.0000 (   744 PWs)   bands (ev):

    -1.3331  -1.3331   2.4453   2.4453

          k = 0.0000-1.5000-1.0000 (   744 PWs)   bands (ev):

    -1.3331  -1.3331   2.4453   2.4453

     highest occupied level (ev):     6.3608

     Writing output data file silicon.save\

     default                                                                    

     bravais-lattice index     =            2
     lattice parameter (alat)  =      10.2273  a.u.
     unit-cell volume          =     267.4379 (a.u.)^3
     number of atoms/cell      =            2
     number of atomic types    =            1
     kinetic-energy cut-off    =      30.0000  Ry
     charge density cut-off    =     120.0000  Ry
     convergence threshold     =      1.0E-14
     beta                      =       0.7000
     number of iterations used =            4
     Exchange-correlation      = PBE ( 1  4  3  4 0 0)


     celldm(1)=   10.22730  celldm(2)=    0.00000  celldm(3)=    0.00000
     celldm(4)=    0.00000  celldm(5)=    0.00000  celldm(6)=    0.00000

     crystal axes: (cart. coord. in units of alat)
               a(1) = ( -0.5000  0.0000  0.5000 )  
               a(2) = (  0.0000  0.5000  0.5000 )  
               a(3) = ( -0.5000  0.5000  0.0000 )  

     reciprocal axes: (cart. coord. in units 2 pi/alat)
               b(1) = ( -1.0000 -1.0000  1.0000 )  
               b(2) = (  1.0000  1.0000  1.0000 )  
               b(3) = ( -1.0000  1.0000 -1.0000 )  


     Atoms inside the unit cell: 

     Cartesian axes

     site n.  atom      mass           positions (alat units)
        1     Si  28.0855   tau(    1) = (    0.00000    0.00000    0.00000  )
        2     Si  28.0855   tau(    2) = (   -0.25000    0.25000    0.25000  )

     Computing dynamical matrix for 
                    q = (   0.0000000  -1.0000000   0.0000000 )

     17 Sym.Ops. (with q -> -q+G )


     G cutoff =  317.9388  (   5961 G-vectors)     FFT grid: ( 32, 32, 32)
     number of k points=    26

     PseudoPot. # 1 for Si read from file:
     ../pseudo/\Si.pbe-nl-kjpaw_psl.1.0.0.UPF
     MD5 check sum: 7c4ce21ffeffd8c0069685f589ef73fc
     Pseudo is Projector augmented-wave + core cor, Zval =  4.0
     Generated using "atomic" code by A. Dal Corso v.6.3
     Shape of augmentation charge: PSQ
     Using radial grid of 1141 points,  4 beta functions with: 
                l(1) =   0
                l(2) =   0
                l(3) =   1
                l(4) =   1
     Q(r) pseudized with 0 coefficients 



     Atomic displacements:
     There are   3 irreducible representations

     Representation     1      2 modes -  To be done

     Representation     2      2 modes -  To be done

     Representation     3      2 modes -  To be done



     Alpha used in Ewald sum =   1.3000
     PHONON       :   3m44.00s CPU   1m40.40s WALL



     Representation #  1 modes #   1  2

     Self-consistent Calculation

      iter #   1 total cpu time :   102.3 secs   av.it.:   4.9
      thresh= 1.000E-02 alpha_mix =  0.700 |ddv_scf|^2 =  4.886E-08

      iter #   2 total cpu time :   104.5 secs   av.it.:   9.3
      thresh= 2.210E-05 alpha_mix =  0.700 |ddv_scf|^2 =  3.361E-09

      iter #   3 total cpu time :   106.7 secs   av.it.:   9.6
      thresh= 5.797E-06 alpha_mix =  0.700 |ddv_scf|^2 =  1.486E-11

      iter #   4 total cpu time :   108.9 secs   av.it.:   9.7
      thresh= 3.854E-07 alpha_mix =  0.700 |ddv_scf|^2 =  2.137E-13

      iter #   5 total cpu time :   111.2 secs   av.it.:   9.7
      thresh= 4.623E-08 alpha_mix =  0.700 |ddv_scf|^2 =  7.048E-16

     End of self-consistent calculation

     Convergence has been achieved 


     Representation #  2 modes #   3  4

     Self-consistent Calculation

      iter #   1 total cpu time :   113.2 secs   av.it.:   6.0
      thresh= 1.000E-02 alpha_mix =  0.700 |ddv_scf|^2 =  4.254E-06

      iter #   2 total cpu time :   115.5 secs   av.it.:   9.8
      thresh= 2.063E-04 alpha_mix =  0.700 |ddv_scf|^2 =  5.923E-06

      iter #   3 total cpu time :   117.7 secs   av.it.:   9.3
      thresh= 2.434E-04 alpha_mix =  0.700 |ddv_scf|^2 =  2.648E-09

      iter #   4 total cpu time :   119.8 secs   av.it.:   9.7
      thresh= 5.146E-06 alpha_mix =  0.700 |ddv_scf|^2 =  1.345E-10

      iter #   5 total cpu time :   122.0 secs   av.it.:  10.0
      thresh= 1.160E-06 alpha_mix =  0.700 |ddv_scf|^2 =  1.492E-12

      iter #   6 total cpu time :   124.2 secs   av.it.:   9.8
      thresh= 1.222E-07 alpha_mix =  0.700 |ddv_scf|^2 =  3.266E-14

      iter #   7 total cpu time :   126.4 secs   av.it.:   9.6
      thresh= 1.807E-08 alpha_mix =  0.700 |ddv_scf|^2 =  4.948E-16

     End of self-consistent calculation

     Convergence has been achieved 


     Representation #  3 modes #   5  6

     Self-consistent Calculation

      iter #   1 total cpu time :   128.5 secs   av.it.:   5.8
      thresh= 1.000E-02 alpha_mix =  0.700 |ddv_scf|^2 =  7.653E-07

      iter #   2 total cpu time :   130.8 secs   av.it.:  10.0
      thresh= 8.748E-05 alpha_mix =  0.700 |ddv_scf|^2 =  2.109E-07

      iter #   3 total cpu time :   133.0 secs   av.it.:   9.6
      thresh= 4.592E-05 alpha_mix =  0.700 |ddv_scf|^2 =  1.335E-09

      iter #   4 total cpu time :   135.2 secs   av.it.:   9.4
      thresh= 3.654E-06 alpha_mix =  0.700 |ddv_scf|^2 =  1.244E-12

      iter #   5 total cpu time :   137.4 secs   av.it.:   9.1
      thresh= 1.115E-07 alpha_mix =  0.700 |ddv_scf|^2 =  3.455E-14

      iter #   6 total cpu time :   139.6 secs   av.it.:   9.2
      thresh= 1.859E-08 alpha_mix =  0.700 |ddv_scf|^2 =  1.679E-16

     End of self-consistent calculation

     Convergence has been achieved 

     Number of q in the star =    3
     List of q in the star:
          1   0.000000000  -1.000000000   0.000000000
          2  -1.000000000   0.000000000   0.000000000
          3   0.000000000   0.000000000   1.000000000

     Diagonalizing the dynamical matrix

     q = (    0.000000000  -1.000000000   0.000000000 ) 

 **************************************************************************
     freq (    1) =       4.014702 [THz] =     133.916054 [cm-1]
     freq (    2) =       4.014702 [THz] =     133.916054 [cm-1]
     freq (    3) =      12.347882 [THz] =     411.881018 [cm-1]
     freq (    4) =      12.347882 [THz] =     411.881018 [cm-1]
     freq (    5) =      13.950302 [THz] =     465.332001 [cm-1]
     freq (    6) =      13.950302 [THz] =     465.332001 [cm-1]
 **************************************************************************

     init_run     :      3.25s CPU      0.94s WALL (       2 calls)
     electrons    :      6.34s CPU      1.69s WALL (       2 calls)

     Called by init_run:
     wfcinit      :      0.00s CPU      0.00s WALL (       2 calls)
     potinit      :      0.70s CPU      0.15s WALL (       2 calls)
     hinit0       :      2.38s CPU      0.73s WALL (       2 calls)

     Called by electrons:
     c_bands      :      6.34s CPU      1.69s WALL (       2 calls)
     v_of_rho     :      0.16s CPU      0.03s WALL (       3 calls)
     newd         :      0.03s CPU      0.02s WALL (       3 calls)
     PAW_pot      :      0.97s CPU      0.17s WALL (       3 calls)

     Called by c_bands:
     init_us_2    :      1.22s CPU      0.22s WALL (    1030 calls)
     cegterg      :      5.77s CPU      1.45s WALL (      52 calls)

     Called by sum_band:

     Called by *egterg:
     h_psi        :     99.69s CPU     26.93s WALL (   15384 calls)
     s_psi        :      2.55s CPU      0.68s WALL (   31380 calls)
     g_psi        :      0.41s CPU      0.06s WALL (     652 calls)
     cdiaghg      :      0.03s CPU      0.04s WALL (     704 calls)

     Called by h_psi:
     h_psi:pot    :     96.34s CPU     25.87s WALL (   15384 calls)
     h_psi:calbec :      1.89s CPU      0.45s WALL (   15384 calls)
     vloc_psi     :     92.92s CPU     25.04s WALL (   15384 calls)
     add_vuspsi   :      1.34s CPU      0.28s WALL (   15384 calls)

     General routines
     calbec       :      2.78s CPU      0.75s WALL (   36516 calls)
     fft          :      0.78s CPU      0.25s WALL (    2224 calls)
     ffts         :      0.06s CPU      0.03s WALL (     324 calls)
     fftw         :     47.05s CPU     12.37s WALL (  131862 calls)
     davcio       :      0.92s CPU      0.42s WALL (    7106 calls)

     Parallel routines

     PHONON       :   5m11.94s CPU   2m19.63s WALL

     INITIALIZATION: 
     phq_setup    :      0.80s CPU      0.24s WALL (       3 calls)
     phq_init     :      8.86s CPU      2.97s WALL (       3 calls)

     phq_init     :      8.86s CPU      2.97s WALL (       3 calls)
     set_drhoc    :      5.45s CPU      1.69s WALL (       9 calls)
     init_vloc    :      0.12s CPU      0.01s WALL (       3 calls)
     init_us_1    :      3.22s CPU      0.92s WALL (       3 calls)
     newd         :      0.03s CPU      0.02s WALL (       3 calls)
     dvanqq       :      0.59s CPU      0.14s WALL (       3 calls)
     drho         :      1.38s CPU      0.38s WALL (       3 calls)

     DYNAMICAL MATRIX:
     dynmat0      :      3.86s CPU      1.22s WALL (       3 calls)
     phqscf       :    247.97s CPU    112.31s WALL (       3 calls)
     dynmatrix    :      0.09s CPU      0.02s WALL (       3 calls)

     phqscf       :    247.97s CPU    112.31s WALL (       3 calls)
     solve_linter :    246.33s CPU    111.86s WALL (       9 calls)
     drhodv       :      0.48s CPU      0.09s WALL (       9 calls)

     dynmat0      :      3.86s CPU      1.22s WALL (       3 calls)
     dynmat_us    :      0.16s CPU      0.04s WALL (       3 calls)
     d2ionq       :      0.06s CPU      0.01s WALL (       3 calls)
     dynmatcc     :      3.59s CPU      1.17s WALL (       3 calls)

     dynmat_us    :      0.16s CPU      0.04s WALL (       3 calls)
     addusdynmat  :      0.00s CPU      0.00s WALL (       3 calls)

     phqscf       :    247.97s CPU    112.31s WALL (       3 calls)
     solve_linter :    246.33s CPU    111.86s WALL (       9 calls)

     solve_linter :    246.33s CPU    111.86s WALL (       9 calls)
     dvqpsi_us    :      2.36s CPU      0.50s WALL (     252 calls)
     ortho        :      0.83s CPU      0.22s WALL (    1344 calls)
     cgsolve      :    109.06s CPU     29.58s WALL (    1344 calls)
     incdrhoscf   :      6.95s CPU      1.98s WALL (    1344 calls)
     addusddens   :      1.64s CPU      0.52s WALL (      62 calls)
     vpsifft      :      5.30s CPU      1.22s WALL (     972 calls)
     dv_of_drho   :      2.42s CPU      0.80s WALL (     123 calls)
     mix_pot      :      1.31s CPU      0.32s WALL (      59 calls)
     psymdvscf    :      8.86s CPU      2.43s WALL (      53 calls)
     newdq        :      3.92s CPU      1.03s WALL (      59 calls)
     adddvscf     :      0.25s CPU      0.04s WALL (    1092 calls)
     drhodvus     :      0.00s CPU      0.01s WALL (       9 calls)

     dvqpsi_us    :      2.36s CPU      0.50s WALL (     252 calls)
     dvqpsi_us_on :      0.30s CPU      0.06s WALL (     252 calls)

     cgsolve      :    109.06s CPU     29.58s WALL (    1344 calls)
     ch_psi       :    107.70s CPU     29.13s WALL (   14628 calls)

     ch_psi       :    107.70s CPU     29.13s WALL (   14628 calls)
     h_psi        :     99.69s CPU     26.93s WALL (   15384 calls)
     last         :      7.31s CPU      2.04s WALL (   14628 calls)

     h_psi        :     99.69s CPU     26.93s WALL (   15384 calls)
     add_vuspsi   :      1.34s CPU      0.28s WALL (   15384 calls)

     incdrhoscf   :      6.95s CPU      1.98s WALL (    1344 calls)
     addusdbec    :      0.12s CPU      0.04s WALL (    1548 calls)

     drhodvus     :      0.00s CPU      0.01s WALL (       9 calls)

      General routines
     calbec       :      2.78s CPU      0.75s WALL (   36516 calls)
     fft          :      0.78s CPU      0.25s WALL (    2224 calls)
     ffts         :      0.06s CPU      0.03s WALL (     324 calls)
     fftw         :     47.05s CPU     12.37s WALL (  131862 calls)
     davcio       :      0.92s CPU      0.42s WALL (    7106 calls)
     write_rec    :      1.27s CPU      0.52s WALL (      68 calls)


     PHONON       :   5m11.94s CPU   2m19.63s WALL


   This run was terminated on:   5: 9:10   4Jan2022            

=------------------------------------------------------------------------------=
   JOB DONE.
=------------------------------------------------------------------------------=
