
     Program PHONON v.6.4.1 starts on  4Jan2022 at  5: 9:25 

     This program is part of the open-source Quantum ESPRESSO suite
     for quantum simulation of materials; please cite
         "P. Giannozzi et al., J. Phys.:Condens. Matter 21 395502 (2009);
         "P. Giannozzi et al., J. Phys.:Condens. Matter 29 465901 (2017);
          URL http://www.quantum-espresso.org", 
     in publications or presentations arising from this work. More details at
     http://www.quantum-espresso.org/quote

     Parallel version (MPI & OpenMP), running on       8 processor cores
     Number of MPI processes:                 1
     Threads/MPI process:                     8

     MPI processes distributed on     1 nodes
      Title line not specified: using 'default'.

     Reading data from directory:
     ./tmp\silicon.save\

     IMPORTANT: XC functional enforced from input :
     Exchange-correlation      = PBE ( 1  4  3  4 0 0)
     Any further DFT definition will be discarded
     Please, verify this is what you really want

               file Si.pbe-nl-kjpaw_psl.1.0.0.UPF: wavefunction(s)  3S 3P renormalized

     G-vector sticks info
     --------------------
     sticks:   dense  smooth     PW     G-vecs:    dense   smooth      PW
     Sum         433     433    139                 5961     5961    1067


     Check: negative core charge=   -0.000002

     Calculation of q =    1.0000000   0.0000000   0.0000000

     Subspace diagonalization in iterative solution of the eigenvalue problem:
     a serial algorithm will be used


     G-vector sticks info
     --------------------
     sticks:   dense  smooth     PW     G-vecs:    dense   smooth      PW
     Sum         433     433    163                 5961     5961    1363


     Title: 
     default                                                                    


     bravais-lattice index     =            2
     lattice parameter (alat)  =      10.2273  a.u.
     unit-cell volume          =     267.4379 (a.u.)^3
     number of atoms/cell      =            2
     number of atomic types    =            1
     number of electrons       =         8.00
     number of Kohn-Sham states=            4
     kinetic-energy cutoff     =      30.0000  Ry
     charge density cutoff     =     120.0000  Ry
     Exchange-correlation      = PBE ( 1  4  3  4 0 0)

     celldm(1)=  10.227300  celldm(2)=   0.000000  celldm(3)=   0.000000
     celldm(4)=   0.000000  celldm(5)=   0.000000  celldm(6)=   0.000000

     crystal axes: (cart. coord. in units of alat)
               a(1) = (  -0.500000   0.000000   0.500000 )  
               a(2) = (   0.000000   0.500000   0.500000 )  
               a(3) = (  -0.500000   0.500000   0.000000 )  

     reciprocal axes: (cart. coord. in units 2 pi/alat)
               b(1) = ( -1.000000 -1.000000  1.000000 )  
               b(2) = (  1.000000  1.000000  1.000000 )  
               b(3) = ( -1.000000  1.000000 -1.000000 )  


     PseudoPot. # 1 for Si read from file:
     ../pseudo/\Si.pbe-nl-kjpaw_psl.1.0.0.UPF
     MD5 check sum: 7c4ce21ffeffd8c0069685f589ef73fc
     Pseudo is Projector augmented-wave + core cor, Zval =  4.0
     Generated using "atomic" code by A. Dal Corso v.6.3
     Shape of augmentation charge: PSQ
     Using radial grid of 1141 points,  4 beta functions with: 
                l(1) =   0
                l(2) =   0
                l(3) =   1
                l(4) =   1
     Q(r) pseudized with 0 coefficients 


     atomic species   valence    mass     pseudopotential
        Si             4.00    28.08550     Si( 1.00)

     48 Sym. Ops., with inversion, found



   Cartesian axes

     site n.     atom                  positions (alat units)
         1           Si  tau(   1) = (   0.0000000   0.0000000   0.0000000  )
         2           Si  tau(   2) = (  -0.2500000   0.2500000   0.2500000  )

     number of k points=    26
                       cart. coord. in units 2pi/alat
        k(    1) = (   0.0000000   0.0000000   0.0000000), wk =   0.0312500
        k(    2) = (   1.0000000   0.0000000   0.0000000), wk =   0.0000000
        k(    3) = (  -0.2500000   0.2500000  -0.2500000), wk =   0.2500000
        k(    4) = (   0.7500000   0.2500000  -0.2500000), wk =   0.0000000
        k(    5) = (   0.5000000  -0.5000000   0.5000000), wk =   0.1250000
        k(    6) = (   1.5000000  -0.5000000   0.5000000), wk =   0.0000000
        k(    7) = (   0.0000000   0.5000000   0.0000000), wk =   0.1250000
        k(    8) = (   1.0000000   0.5000000   0.0000000), wk =   0.0000000
        k(    9) = (   0.7500000  -0.2500000   0.7500000), wk =   0.5000000
        k(   10) = (   1.7500000  -0.2500000   0.7500000), wk =   0.0000000
        k(   11) = (   0.5000000   0.0000000   0.5000000), wk =   0.2500000
        k(   12) = (   1.5000000   0.0000000   0.5000000), wk =   0.0000000
        k(   13) = (   0.0000000  -1.0000000   0.0000000), wk =   0.0625000
        k(   14) = (   1.0000000  -1.0000000   0.0000000), wk =   0.0000000
        k(   15) = (  -0.5000000  -1.0000000   0.0000000), wk =   0.0625000
        k(   16) = (   0.5000000  -1.0000000   0.0000000), wk =   0.0000000
        k(   17) = (   0.5000000   0.0000000   0.0000000), wk =   0.0625000
        k(   18) = (   1.5000000   0.0000000   0.0000000), wk =   0.0000000
        k(   19) = (  -0.2500000   0.7500000   0.7500000), wk =   0.2500000
        k(   20) = (   0.7500000   0.7500000   0.7500000), wk =   0.0000000
        k(   21) = (   0.0000000   0.5000000   0.5000000), wk =   0.1250000
        k(   22) = (   1.0000000   0.5000000   0.5000000), wk =   0.0000000
        k(   23) = (  -1.0000000   0.0000000   0.0000000), wk =   0.0312500
        k(   24) = (   0.0000000   0.0000000   0.0000000), wk =   0.0000000
        k(   25) = (  -1.0000000   0.0000000  -0.5000000), wk =   0.1250000
        k(   26) = (   0.0000000   0.0000000  -0.5000000), wk =   0.0000000

     Dense  grid:     5961 G-vectors     FFT dimensions: (  32,  32,  32)

     Estimated max dynamical RAM per process >       7.68 MB

     Check: negative core charge=   -0.000002

     The potential is recalculated from file :
     ./tmp\_ph0\silicon.save\charge-density

     Starting wfcs are    8 atomic wfcs
     Checking if some PAW data can be deallocated... 

     Band Structure Calculation
     Davidson diagonalization with overlap

     ethr =  1.25E-10,  avg # of iterations = 12.5

     total cpu time spent up to now is        1.2 secs

     End of band structure calculation

          k = 0.0000 0.0000 0.0000 (   725 PWs)   bands (ev):

    -5.6882   6.3608   6.3608   6.3608

          k = 1.0000 0.0000 0.0000 (   740 PWs)   bands (ev):

    -1.5027  -1.5027   3.4652   3.4652

          k =-0.2500 0.2500-0.2500 (   751 PWs)   bands (ev):

    -4.8806   2.4020   5.5877   5.5877

          k = 0.7500 0.2500-0.2500 (   739 PWs)   bands (ev):

    -2.9407  -0.0633   2.7763   4.1209

          k = 0.5000-0.5000 0.5000 (   754 PWs)   bands (ev):

    -3.3275  -0.6756   5.1442   5.1442

          k = 1.5000-0.5000 0.5000 (   754 PWs)   bands (ev):

    -3.3275  -0.6756   5.1442   5.1442

          k = 0.0000 0.5000 0.0000 (   729 PWs)   bands (ev):

    -4.5959   2.8388   4.4389   4.4389

          k = 1.0000 0.5000 0.0000 (   744 PWs)   bands (ev):

    -1.3331  -1.3331   2.4453   2.4453

          k = 0.7500-0.2500 0.7500 (   739 PWs)   bands (ev):

    -2.9407  -0.0633   2.7763   4.1209

          k = 1.7500-0.2500 0.7500 (   739 PWs)   bands (ev):

    -2.9407  -0.0633   2.7763   4.1209

          k = 0.5000 0.0000 0.5000 (   742 PWs)   bands (ev):

    -3.6230   0.8498   2.5504   5.0118

          k = 1.5000 0.0000 0.5000 (   742 PWs)   bands (ev):

    -3.6230   0.8498   2.5504   5.0118

          k = 0.0000-1.0000 0.0000 (   740 PWs)   bands (ev):

    -1.5027  -1.5027   3.4652   3.4652

          k = 1.0000-1.0000 0.0000 (   740 PWs)   bands (ev):

    -1.5027  -1.5027   3.4652   3.4652

          k =-0.5000-1.0000 0.0000 (   744 PWs)   bands (ev):

    -1.3331  -1.3331   2.4453   2.4453

          k = 0.5000-1.0000 0.0000 (   744 PWs)   bands (ev):

    -1.3331  -1.3331   2.4453   2.4453

          k = 0.5000 0.0000 0.0000 (   729 PWs)   bands (ev):

    -4.5959   2.8388   4.4389   4.4389

          k = 1.5000 0.0000 0.0000 (   729 PWs)   bands (ev):

    -4.5959   2.8388   4.4389   4.4389

          k =-0.2500 0.7500 0.7500 (   739 PWs)   bands (ev):

    -2.9407  -0.0633   2.7763   4.1209

          k = 0.7500 0.7500 0.7500 (   751 PWs)   bands (ev):

    -4.8806   2.4020   5.5877   5.5877

          k = 0.0000 0.5000 0.5000 (   742 PWs)   bands (ev):

    -3.6230   0.8498   2.5504   5.0118

          k = 1.0000 0.5000 0.5000 (   742 PWs)   bands (ev):

    -3.6230   0.8498   2.5504   5.0118

          k =-1.0000 0.0000 0.0000 (   740 PWs)   bands (ev):

    -1.5027  -1.5027   3.4652   3.4652

          k = 0.0000 0.0000 0.0000 (   725 PWs)   bands (ev):

    -5.6882   6.3608   6.3608   6.3608

          k =-1.0000 0.0000-0.5000 (   744 PWs)   bands (ev):

    -1.3331  -1.3331   2.4453   2.4453

          k = 0.0000 0.0000-0.5000 (   729 PWs)   bands (ev):

    -4.5959   2.8388   4.4389   4.4389

     highest occupied level (ev):     6.3608

     Writing output data file silicon.save\

     default                                                                    

     bravais-lattice index     =            2
     lattice parameter (alat)  =      10.2273  a.u.
     unit-cell volume          =     267.4379 (a.u.)^3
     number of atoms/cell      =            2
     number of atomic types    =            1
     kinetic-energy cut-off    =      30.0000  Ry
     charge density cut-off    =     120.0000  Ry
     convergence threshold     =      1.0E-14
     beta                      =       0.7000
     number of iterations used =            4
     Exchange-correlation      = PBE ( 1  4  3  4 0 0)


     celldm(1)=   10.22730  celldm(2)=    0.00000  celldm(3)=    0.00000
     celldm(4)=    0.00000  celldm(5)=    0.00000  celldm(6)=    0.00000

     crystal axes: (cart. coord. in units of alat)
               a(1) = ( -0.5000  0.0000  0.5000 )  
               a(2) = (  0.0000  0.5000  0.5000 )  
               a(3) = ( -0.5000  0.5000  0.0000 )  

     reciprocal axes: (cart. coord. in units 2 pi/alat)
               b(1) = ( -1.0000 -1.0000  1.0000 )  
               b(2) = (  1.0000  1.0000  1.0000 )  
               b(3) = ( -1.0000  1.0000 -1.0000 )  


     Atoms inside the unit cell: 

     Cartesian axes

     site n.  atom      mass           positions (alat units)
        1     Si  28.0855   tau(    1) = (    0.00000    0.00000    0.00000  )
        2     Si  28.0855   tau(    2) = (   -0.25000    0.25000    0.25000  )

     Computing dynamical matrix for 
                    q = (   1.0000000   0.0000000   0.0000000 )

     17 Sym.Ops. (with q -> -q+G )


     G cutoff =  317.9388  (   5961 G-vectors)     FFT grid: ( 32, 32, 32)
     number of k points=    26
                       cart. coord. in units 2pi/alat
        k(    1) = (   0.0000000   0.0000000   0.0000000), wk =   0.0312500
        k(    2) = (   1.0000000   0.0000000   0.0000000), wk =   0.0000000
        k(    3) = (  -0.2500000   0.2500000  -0.2500000), wk =   0.2500000
        k(    4) = (   0.7500000   0.2500000  -0.2500000), wk =   0.0000000
        k(    5) = (   0.5000000  -0.5000000   0.5000000), wk =   0.1250000
        k(    6) = (   1.5000000  -0.5000000   0.5000000), wk =   0.0000000
        k(    7) = (   0.0000000   0.5000000   0.0000000), wk =   0.1250000
        k(    8) = (   1.0000000   0.5000000   0.0000000), wk =   0.0000000
        k(    9) = (   0.7500000  -0.2500000   0.7500000), wk =   0.5000000
        k(   10) = (   1.7500000  -0.2500000   0.7500000), wk =   0.0000000
        k(   11) = (   0.5000000   0.0000000   0.5000000), wk =   0.2500000
        k(   12) = (   1.5000000   0.0000000   0.5000000), wk =   0.0000000
        k(   13) = (   0.0000000  -1.0000000   0.0000000), wk =   0.0625000
        k(   14) = (   1.0000000  -1.0000000   0.0000000), wk =   0.0000000
        k(   15) = (  -0.5000000  -1.0000000   0.0000000), wk =   0.0625000
        k(   16) = (   0.5000000  -1.0000000   0.0000000), wk =   0.0000000
        k(   17) = (   0.5000000   0.0000000   0.0000000), wk =   0.0625000
        k(   18) = (   1.5000000   0.0000000   0.0000000), wk =   0.0000000
        k(   19) = (  -0.2500000   0.7500000   0.7500000), wk =   0.2500000
        k(   20) = (   0.7500000   0.7500000   0.7500000), wk =   0.0000000
        k(   21) = (   0.0000000   0.5000000   0.5000000), wk =   0.1250000
        k(   22) = (   1.0000000   0.5000000   0.5000000), wk =   0.0000000
        k(   23) = (  -1.0000000   0.0000000   0.0000000), wk =   0.0312500
        k(   24) = (   0.0000000   0.0000000   0.0000000), wk =   0.0000000
        k(   25) = (  -1.0000000   0.0000000  -0.5000000), wk =   0.1250000
        k(   26) = (   0.0000000   0.0000000  -0.5000000), wk =   0.0000000

     PseudoPot. # 1 for Si read from file:
     ../pseudo/\Si.pbe-nl-kjpaw_psl.1.0.0.UPF
     MD5 check sum: 7c4ce21ffeffd8c0069685f589ef73fc
     Pseudo is Projector augmented-wave + core cor, Zval =  4.0
     Generated using "atomic" code by A. Dal Corso v.6.3
     Shape of augmentation charge: PSQ
     Using radial grid of 1141 points,  4 beta functions with: 
                l(1) =   0
                l(2) =   0
                l(3) =   1
                l(4) =   1
     Q(r) pseudized with 0 coefficients 



     Atomic displacements:
     There are   3 irreducible representations

     Representation     1      2 modes -  To be done

     Representation     2      2 modes -  To be done

     Representation     3      2 modes -  To be done



     Alpha used in Ewald sum =   1.3000
     PHONON       :      9.94s CPU      4.01s WALL



     Representation #  1 modes #   1  2

     Self-consistent Calculation

      iter #   1 total cpu time :     6.0 secs   av.it.:   4.7
      thresh= 1.000E-02 alpha_mix =  0.700 |ddv_scf|^2 =  4.886E-08

      iter #   2 total cpu time :     8.2 secs   av.it.:   9.4
      thresh= 2.210E-05 alpha_mix =  0.700 |ddv_scf|^2 =  3.361E-09

      iter #   3 total cpu time :    10.4 secs   av.it.:   9.5
      thresh= 5.798E-06 alpha_mix =  0.700 |ddv_scf|^2 =  1.486E-11

      iter #   4 total cpu time :    12.7 secs   av.it.:   9.7
      thresh= 3.855E-07 alpha_mix =  0.700 |ddv_scf|^2 =  2.142E-13

      iter #   5 total cpu time :    14.9 secs   av.it.:   9.6
      thresh= 4.628E-08 alpha_mix =  0.700 |ddv_scf|^2 =  7.053E-16

     End of self-consistent calculation

     Convergence has been achieved 


     Representation #  2 modes #   3  4

     Self-consistent Calculation

      iter #   1 total cpu time :    17.0 secs   av.it.:   5.7
      thresh= 1.000E-02 alpha_mix =  0.700 |ddv_scf|^2 =  7.655E-07

      iter #   2 total cpu time :    19.2 secs   av.it.:   9.8
      thresh= 8.749E-05 alpha_mix =  0.700 |ddv_scf|^2 =  2.111E-07

      iter #   3 total cpu time :    21.4 secs   av.it.:   9.5
      thresh= 4.594E-05 alpha_mix =  0.700 |ddv_scf|^2 =  1.335E-09

      iter #   4 total cpu time :    23.7 secs   av.it.:   9.4
      thresh= 3.653E-06 alpha_mix =  0.700 |ddv_scf|^2 =  1.241E-12

      iter #   5 total cpu time :    26.0 secs   av.it.:   9.1
      thresh= 1.114E-07 alpha_mix =  0.700 |ddv_scf|^2 =  3.466E-14

      iter #   6 total cpu time :    28.2 secs   av.it.:   9.2
      thresh= 1.862E-08 alpha_mix =  0.700 |ddv_scf|^2 =  1.678E-16

     End of self-consistent calculation

     Convergence has been achieved 


     Representation #  3 modes #   5  6

     Self-consistent Calculation

      iter #   1 total cpu time :    30.2 secs   av.it.:   6.0
      thresh= 1.000E-02 alpha_mix =  0.700 |ddv_scf|^2 =  4.252E-06

      iter #   2 total cpu time :    32.4 secs   av.it.:   9.9
      thresh= 2.062E-04 alpha_mix =  0.700 |ddv_scf|^2 =  5.917E-06

      iter #   3 total cpu time :    34.7 secs   av.it.:   9.3
      thresh= 2.432E-04 alpha_mix =  0.700 |ddv_scf|^2 =  2.664E-09

      iter #   4 total cpu time :    37.0 secs   av.it.:   9.8
      thresh= 5.162E-06 alpha_mix =  0.700 |ddv_scf|^2 =  1.341E-10

      iter #   5 total cpu time :    39.2 secs   av.it.:  10.0
      thresh= 1.158E-06 alpha_mix =  0.700 |ddv_scf|^2 =  1.476E-12

      iter #   6 total cpu time :    41.5 secs   av.it.:   9.9
      thresh= 1.215E-07 alpha_mix =  0.700 |ddv_scf|^2 =  3.254E-14

      iter #   7 total cpu time :    43.8 secs   av.it.:   9.7
      thresh= 1.804E-08 alpha_mix =  0.700 |ddv_scf|^2 =  4.964E-16

     End of self-consistent calculation

     Convergence has been achieved 

     Number of q in the star =    3
     List of q in the star:
          1   1.000000000   0.000000000   0.000000000
          2   0.000000000   0.000000000   1.000000000
          3   0.000000000   1.000000000   0.000000000

     Diagonalizing the dynamical matrix

     q = (    1.000000000   0.000000000   0.000000000 ) 

 **************************************************************************
     freq (    1) =       4.014638 [THz] =     133.913914 [cm-1]
     freq (    2) =       4.014638 [THz] =     133.913914 [cm-1]
     freq (    3) =      12.347829 [THz] =     411.879233 [cm-1]
     freq (    4) =      12.347829 [THz] =     411.879233 [cm-1]
     freq (    5) =      13.950278 [THz] =     465.331171 [cm-1]
     freq (    6) =      13.950278 [THz] =     465.331171 [cm-1]
 **************************************************************************

     init_run     :      1.05s CPU      0.43s WALL (       1 calls)
     electrons    :      2.86s CPU      0.80s WALL (       1 calls)

     Called by init_run:
     wfcinit      :      0.00s CPU      0.00s WALL (       1 calls)
     potinit      :      0.23s CPU      0.07s WALL (       1 calls)
     hinit0       :      0.77s CPU      0.33s WALL (       1 calls)

     Called by electrons:
     c_bands      :      2.86s CPU      0.79s WALL (       1 calls)
     v_of_rho     :      0.11s CPU      0.02s WALL (       2 calls)
     newd         :      0.03s CPU      0.01s WALL (       2 calls)
     PAW_pot      :      0.38s CPU      0.11s WALL (       2 calls)

     Called by c_bands:
     init_us_2    :      0.06s CPU      0.06s WALL (     351 calls)
     cegterg      :      2.67s CPU      0.68s WALL (      26 calls)

     Called by sum_band:

     Called by *egterg:
     h_psi        :     35.80s CPU      9.24s WALL (    5260 calls)
     s_psi        :      0.81s CPU      0.23s WALL (   10612 calls)
     g_psi        :      0.08s CPU      0.01s WALL (     324 calls)
     cdiaghg      :      0.00s CPU      0.02s WALL (     350 calls)

     Called by h_psi:
     h_psi:pot    :     34.64s CPU      8.86s WALL (    5260 calls)
     h_psi:calbec :      0.39s CPU      0.13s WALL (    5260 calls)
     vloc_psi     :     33.77s CPU      8.61s WALL (    5260 calls)
     add_vuspsi   :      0.48s CPU      0.09s WALL (    5260 calls)

     General routines
     calbec       :      0.88s CPU      0.21s WALL (   11652 calls)
     fft          :      0.25s CPU      0.07s WALL (     638 calls)
     ffts         :      0.00s CPU      0.01s WALL (     102 calls)
     fftw         :     16.81s CPU      4.39s WALL (   45396 calls)
     davcio       :      0.42s CPU      0.13s WALL (    2158 calls)

     Parallel routines

     PHONON       :   1m37.56s CPU     43.88s WALL

     INITIALIZATION: 
     phq_setup    :      0.27s CPU      0.08s WALL (       1 calls)
     phq_init     :      3.08s CPU      1.00s WALL (       1 calls)

     phq_init     :      3.08s CPU      1.00s WALL (       1 calls)
     set_drhoc    :      1.78s CPU      0.56s WALL (       3 calls)
     init_vloc    :      0.00s CPU      0.01s WALL (       2 calls)
     init_us_1    :      1.75s CPU      0.59s WALL (       2 calls)
     newd         :      0.03s CPU      0.01s WALL (       2 calls)
     dvanqq       :      0.17s CPU      0.05s WALL (       1 calls)
     drho         :      0.55s CPU      0.14s WALL (       1 calls)

     DYNAMICAL MATRIX:
     dynmat0      :      1.12s CPU      0.39s WALL (       1 calls)
     phqscf       :     87.58s CPU     39.85s WALL (       1 calls)
     dynmatrix    :      0.00s CPU      0.00s WALL (       1 calls)

     phqscf       :     87.58s CPU     39.85s WALL (       1 calls)
     solve_linter :     87.28s CPU     39.74s WALL (       3 calls)
     drhodv       :      0.06s CPU      0.03s WALL (       3 calls)

     dynmat0      :      1.12s CPU      0.39s WALL (       1 calls)
     dynmat_us    :      0.00s CPU      0.01s WALL (       1 calls)
     d2ionq       :      0.05s CPU      0.00s WALL (       1 calls)
     dynmatcc     :      1.06s CPU      0.37s WALL (       1 calls)

     dynmat_us    :      0.00s CPU      0.01s WALL (       1 calls)
     addusdynmat  :      0.00s CPU      0.00s WALL (       1 calls)

     phqscf       :     87.58s CPU     39.85s WALL (       1 calls)
     solve_linter :     87.28s CPU     39.74s WALL (       3 calls)

     solve_linter :     87.28s CPU     39.74s WALL (       3 calls)
     dvqpsi_us    :      0.22s CPU      0.15s WALL (      78 calls)
     ortho        :      0.12s CPU      0.07s WALL (     468 calls)
     cgsolve      :     38.16s CPU      9.88s WALL (     468 calls)
     incdrhoscf   :      2.06s CPU      0.75s WALL (     468 calls)
     addusddens   :      0.73s CPU      0.18s WALL (      21 calls)
     vpsifft      :      1.47s CPU      0.45s WALL (     390 calls)
     dv_of_drho   :      0.81s CPU      0.23s WALL (      36 calls)
     mix_pot      :      0.39s CPU      0.11s WALL (      18 calls)
     psymdvscf    :      2.20s CPU      0.60s WALL (      18 calls)
     newdq        :      1.14s CPU      0.30s WALL (      18 calls)
     adddvscf     :      0.11s CPU      0.02s WALL (     390 calls)
     drhodvus     :      0.05s CPU      0.00s WALL (       3 calls)

     dvqpsi_us    :      0.22s CPU      0.15s WALL (      78 calls)
     dvqpsi_us_on :      0.00s CPU      0.01s WALL (      78 calls)

     cgsolve      :     38.16s CPU      9.88s WALL (     468 calls)
     ch_psi       :     37.58s CPU      9.74s WALL (    4884 calls)

     ch_psi       :     37.58s CPU      9.74s WALL (    4884 calls)
     h_psi        :     35.80s CPU      9.24s WALL (    5260 calls)
     last         :      2.58s CPU      0.64s WALL (    4884 calls)

     h_psi        :     35.80s CPU      9.24s WALL (    5260 calls)
     add_vuspsi   :      0.48s CPU      0.09s WALL (    5260 calls)

     incdrhoscf   :      2.06s CPU      0.75s WALL (     468 calls)
     addusdbec    :      0.06s CPU      0.02s WALL (     546 calls)

     drhodvus     :      0.05s CPU      0.00s WALL (       3 calls)

      General routines
     calbec       :      0.88s CPU      0.21s WALL (   11652 calls)
     fft          :      0.25s CPU      0.07s WALL (     638 calls)
     ffts         :      0.00s CPU      0.01s WALL (     102 calls)
     fftw         :     16.81s CPU      4.39s WALL (   45396 calls)
     davcio       :      0.42s CPU      0.13s WALL (    2158 calls)
     write_rec    :      0.42s CPU      0.14s WALL (      21 calls)


     PHONON       :   1m37.56s CPU     43.88s WALL


   This run was terminated on:   5:10: 9   4Jan2022            

=------------------------------------------------------------------------------=
   JOB DONE.
=------------------------------------------------------------------------------=
