
     Program PWSCF v.6.4.1 starts on  4Jan2022 at  5: 0:40 

     This program is part of the open-source Quantum ESPRESSO suite
     for quantum simulation of materials; please cite
         "P. Giannozzi et al., J. Phys.:Condens. Matter 21 395502 (2009);
         "P. Giannozzi et al., J. Phys.:Condens. Matter 29 465901 (2017);
          URL http://www.quantum-espresso.org", 
     in publications or presentations arising from this work. More details at
     http://www.quantum-espresso.org/quote

     Parallel version (MPI & OpenMP), running on       8 processor cores
     Number of MPI processes:                 1
     Threads/MPI process:                     8

     MPI processes distributed on     1 nodes
     Waiting for input...
     Reading input from standard input

     Current dimensions of program PWSCF are:
     Max number of different atomic species (ntypx) = 10
     Max number of k-points (npk) =  40000
     Max angular momentum in pseudopotentials (lmaxx) =  3
               file Si.pbe-nl-kjpaw_psl.1.0.0.UPF: wavefunction(s)  3S 3P renormalized

     Subspace diagonalization in iterative solution of the eigenvalue problem:
     a serial algorithm will be used


     G-vector sticks info
     --------------------
     sticks:   dense  smooth     PW     G-vecs:    dense   smooth      PW
     Sum         433     433    139                 5961     5961    1067



     bravais-lattice index     =            2
     lattice parameter (alat)  =      10.2273  a.u.
     unit-cell volume          =     267.4379 (a.u.)^3
     number of atoms/cell      =            2
     number of atomic types    =            1
     number of electrons       =         8.00
     number of Kohn-Sham states=            4
     kinetic-energy cutoff     =      30.0000  Ry
     charge density cutoff     =     120.0000  Ry
     convergence threshold     =      1.0E-08
     mixing beta               =       0.7000
     number of iterations used =            8  plain     mixing
     Exchange-correlation      = SLA PW PBX PBC ( 1  4  3  4 0 0)

     celldm(1)=  10.227300  celldm(2)=   0.000000  celldm(3)=   0.000000
     celldm(4)=   0.000000  celldm(5)=   0.000000  celldm(6)=   0.000000

     crystal axes: (cart. coord. in units of alat)
               a(1) = (  -0.500000   0.000000   0.500000 )  
               a(2) = (   0.000000   0.500000   0.500000 )  
               a(3) = (  -0.500000   0.500000   0.000000 )  

     reciprocal axes: (cart. coord. in units 2 pi/alat)
               b(1) = ( -1.000000 -1.000000  1.000000 )  
               b(2) = (  1.000000  1.000000  1.000000 )  
               b(3) = ( -1.000000  1.000000 -1.000000 )  


     PseudoPot. # 1 for Si read from file:
     ../pseudo/\Si.pbe-nl-kjpaw_psl.1.0.0.UPF
     MD5 check sum: 7c4ce21ffeffd8c0069685f589ef73fc
     Pseudo is Projector augmented-wave + core cor, Zval =  4.0
     Generated using "atomic" code by A. Dal Corso v.6.3
     Shape of augmentation charge: PSQ
     Using radial grid of 1141 points,  4 beta functions with: 
                l(1) =   0
                l(2) =   0
                l(3) =   1
                l(4) =   1
     Q(r) pseudized with 0 coefficients 


     atomic species   valence    mass     pseudopotential
        Si             4.00    28.08550     Si( 1.00)

     48 Sym. Ops., with inversion, found (24 have fractional translation)



   Cartesian axes

     site n.     atom                  positions (alat units)
         1           Si  tau(   1) = (   0.0000000   0.0000000   0.0000000  )
         2           Si  tau(   2) = (  -0.2500000   0.2500000   0.2500000  )

     number of k points=     8
                       cart. coord. in units 2pi/alat
        k(    1) = (   0.0000000   0.0000000   0.0000000), wk =   0.0312500
        k(    2) = (  -0.2500000   0.2500000  -0.2500000), wk =   0.2500000
        k(    3) = (   0.5000000  -0.5000000   0.5000000), wk =   0.1250000
        k(    4) = (   0.0000000   0.5000000   0.0000000), wk =   0.1875000
        k(    5) = (   0.7500000  -0.2500000   0.7500000), wk =   0.7500000
        k(    6) = (   0.5000000   0.0000000   0.5000000), wk =   0.3750000
        k(    7) = (   0.0000000  -1.0000000   0.0000000), wk =   0.0937500
        k(    8) = (  -0.5000000  -1.0000000   0.0000000), wk =   0.1875000

     Dense  grid:     5961 G-vectors     FFT dimensions: (  32,  32,  32)

     Estimated max dynamical RAM per process >       9.82 MB

     Check: negative core charge=   -0.000002

     Initial potential from superposition of free atoms

     starting charge    7.99888, renormalised to    8.00000
     Starting wfcs are    8 randomized atomic wfcs
     Checking if some PAW data can be deallocated... 

     total cpu time spent up to now is        1.6 secs

     Self-consistent Calculation

     iteration #  1     ecut=    30.00 Ry     beta= 0.70
     Davidson diagonalization with overlap
     ethr =  1.00E-02,  avg # of iterations =  2.0

     Threshold (ethr) on eigenvalues was too large:
     Diagonalizing with lowered threshold

     Davidson diagonalization with overlap
     ethr =  7.95E-04,  avg # of iterations =  1.2

     total cpu time spent up to now is        1.9 secs

     total energy              =     -93.43521310 Ry
     Harris-Foulkes estimate   =     -93.45110526 Ry
     estimated scf accuracy    <       0.06282090 Ry

     iteration #  2     ecut=    30.00 Ry     beta= 0.70
     Davidson diagonalization with overlap
     ethr =  7.85E-04,  avg # of iterations =  1.0

     total cpu time spent up to now is        2.0 secs

     total energy              =     -93.43764562 Ry
     Harris-Foulkes estimate   =     -93.43787387 Ry
     estimated scf accuracy    <       0.00291241 Ry

     iteration #  3     ecut=    30.00 Ry     beta= 0.70
     Davidson diagonalization with overlap
     ethr =  3.64E-05,  avg # of iterations =  2.5

     total cpu time spent up to now is        2.2 secs

     total energy              =     -93.43827722 Ry
     Harris-Foulkes estimate   =     -93.43833358 Ry
     estimated scf accuracy    <       0.00012517 Ry

     iteration #  4     ecut=    30.00 Ry     beta= 0.70
     Davidson diagonalization with overlap
     ethr =  1.56E-06,  avg # of iterations =  2.4

     total cpu time spent up to now is        2.3 secs

     total energy              =     -93.43830925 Ry
     Harris-Foulkes estimate   =     -93.43833222 Ry
     estimated scf accuracy    <       0.00004395 Ry

     iteration #  5     ecut=    30.00 Ry     beta= 0.70
     Davidson diagonalization with overlap
     ethr =  5.49E-07,  avg # of iterations =  2.0

     total cpu time spent up to now is        2.5 secs

     total energy              =     -93.43831531 Ry
     Harris-Foulkes estimate   =     -93.43831547 Ry
     estimated scf accuracy    <       0.00000048 Ry

     iteration #  6     ecut=    30.00 Ry     beta= 0.70
     Davidson diagonalization with overlap
     ethr =  6.02E-09,  avg # of iterations =  3.4

     total cpu time spent up to now is        2.6 secs

     total energy              =     -93.43831556 Ry
     Harris-Foulkes estimate   =     -93.43831557 Ry
     estimated scf accuracy    <       0.00000002 Ry

     iteration #  7     ecut=    30.00 Ry     beta= 0.70
     Davidson diagonalization with overlap
     ethr =  3.12E-10,  avg # of iterations =  2.8

     total cpu time spent up to now is        2.8 secs

     End of self-consistent calculation

          k = 0.0000 0.0000 0.0000 (   725 PWs)   bands (ev):

    -5.6882   6.3608   6.3608   6.3608

          k =-0.2500 0.2500-0.2500 (   751 PWs)   bands (ev):

    -4.8806   2.4020   5.5877   5.5877

          k = 0.5000-0.5000 0.5000 (   754 PWs)   bands (ev):

    -3.3275  -0.6756   5.1442   5.1442

          k = 0.0000 0.5000 0.0000 (   729 PWs)   bands (ev):

    -4.5959   2.8388   4.4389   4.4389

          k = 0.7500-0.2500 0.7500 (   739 PWs)   bands (ev):

    -2.9407  -0.0633   2.7763   4.1209

          k = 0.5000 0.0000 0.5000 (   742 PWs)   bands (ev):

    -3.6230   0.8498   2.5503   5.0118

          k = 0.0000-1.0000 0.0000 (   740 PWs)   bands (ev):

    -1.5027  -1.5027   3.4652   3.4652

          k =-0.5000-1.0000 0.0000 (   744 PWs)   bands (ev):

    -1.3331  -1.3331   2.4453   2.4453

     highest occupied level (ev):     6.3608

!    total energy              =     -93.43831557 Ry
     Harris-Foulkes estimate   =     -93.43831557 Ry
     estimated scf accuracy    <          1.5E-10 Ry

     total all-electron energy =     -1160.130046 Ry

     The total energy is the sum of the following terms:

     one-electron contribution =       5.82100871 Ry
     hartree contribution      =       1.11559097 Ry
     xc contribution           =      -9.87830718 Ry
     ewald contribution        =     -16.85464764 Ry
     one-center paw contrib.   =     -73.64196044 Ry

     convergence has been achieved in   7 iterations

     Writing output data file silicon.save\

     init_run     :      0.86s CPU      0.46s WALL (       1 calls)
     electrons    :      4.70s CPU      1.28s WALL (       1 calls)

     Called by init_run:
     wfcinit      :      0.17s CPU      0.04s WALL (       1 calls)
     potinit      :      0.23s CPU      0.07s WALL (       1 calls)
     hinit0       :      0.36s CPU      0.31s WALL (       1 calls)

     Called by electrons:
     c_bands      :      1.80s CPU      0.50s WALL (       8 calls)
     sum_band     :      0.56s CPU      0.20s WALL (       8 calls)
     v_of_rho     :      0.28s CPU      0.07s WALL (       8 calls)
     newd         :      0.14s CPU      0.05s WALL (       8 calls)
     PAW_pot      :      1.59s CPU      0.41s WALL (       8 calls)
     mix_rho      :      0.14s CPU      0.01s WALL (       8 calls)

     Called by c_bands:
     init_us_2    :      0.25s CPU      0.03s WALL (     136 calls)
     cegterg      :      1.67s CPU      0.46s WALL (      64 calls)

     Called by sum_band:
     sum_band:bec :      0.06s CPU      0.01s WALL (      64 calls)
     addusdens    :      0.19s CPU      0.08s WALL (       8 calls)

     Called by *egterg:
     h_psi        :      1.55s CPU      0.40s WALL (     210 calls)
     s_psi        :      0.00s CPU      0.00s WALL (     210 calls)
     g_psi        :      0.00s CPU      0.01s WALL (     138 calls)
     cdiaghg      :      0.00s CPU      0.01s WALL (     194 calls)

     Called by h_psi:
     h_psi:pot    :      1.44s CPU      0.39s WALL (     210 calls)
     h_psi:calbec :      0.00s CPU      0.01s WALL (     210 calls)
     vloc_psi     :      1.44s CPU      0.38s WALL (     210 calls)
     add_vuspsi   :      0.00s CPU      0.00s WALL (     210 calls)

     General routines
     calbec       :      0.00s CPU      0.01s WALL (     274 calls)
     fft          :      0.00s CPU      0.01s WALL (      89 calls)
     ffts         :      0.00s CPU      0.00s WALL (       8 calls)
     fftw         :      0.64s CPU      0.18s WALL (    1806 calls)

     Parallel routines

     PWSCF        :      6.81s CPU      2.98s WALL


   This run was terminated on:   5: 0:43   4Jan2022            

=------------------------------------------------------------------------------=
   JOB DONE.
=------------------------------------------------------------------------------=
